LAMMPS (2 Aug 2023)
package omp 8
WARNING: OpenMP support not enabled during compilation; using 1 thread only. (../fix_omp.cpp:116)
# Compute elastic constant tensor for a crystal
#
# Written by Aidan Thompson (Sandia, athomps@sandia.gov)
#
#  This script uses the following three include files.
#
#   init.mod      (must be modified for different crystal structures)
# 	       	  Define units, deformation parameters and initial
#		  configuration of the atoms and simulation cell.
#
#
#   potential.mod    (must be modified for different pair styles)
# 		     Define pair style and other attributes
#		     not stored in restart file
#
#
#   displace.mod    (displace.mod should not need to be modified)
# 		    Perform positive and negative box displacements
# 		    in direction ${dir} and size ${up}.
# 		    It uses the resultant changes
#		    in stress to compute one
# 		    row of the elastic stiffness tensor
#
#		    Inputs variables:
#		    	   dir = the Voigt deformation component
#		    		    (1,2,3,4,5,6)
#		    Global constants:
#       	    	   up = the deformation magnitude (strain units)
#       		   cfac = conversion from LAMMPS pressure units to
#               	   output units for elastic constants
#
#
#  To run this on a different system, it should only be necessary to
#  modify the files init.mod and potential.mod. In order to calculate
#  the elastic constants correctly, care must be taken to specify
#  the correct units in init.mod (units, cfac and cunits). It is also
#  important to verify that the minimization of energy w.r.t atom
#  positions in the deformed cell is fully converged.
#  One indication of this is that the elastic constants are insensitive
#  to the choice of the variable ${up} in init.mod. Another is to check
#  the final max and two-norm forces reported in the log file. If you know
#  that minimization is not required, you can set maxiter = 0.0 in
#  init.mod.
#

include init.mod
# NOTE: This script can be modified for different atomic structures,
# units, etc. See in.elastic for more info.
#

# Define the finite deformation size. Try several values of this
# variable to verify that results do not depend on it.
variable up equal 1.0e-6

# Define the amount of random jiggle for atoms
# This prevents atoms from staying on saddle points
variable atomjiggle equal 1.0e-5

# Uncomment one of these blocks, depending on what units
# you are using in LAMMPS and for output

# metal units, elastic constants in eV/A^3
#units		metal
#variable cfac equal 6.2414e-7
#variable cunits string eV/A^3

# metal units, elastic constants in GPa
units		metal
variable cfac equal 1.0e-4
variable cunits string GPa

# real units, elastic constants in GPa
#units		real
#variable cfac equal 1.01325e-4
#variable cunits string GPa

# Define minimization parameters
variable etol equal 0.0
variable ftol equal 1.0e-10
variable maxiter equal 100
variable maxeval equal 1000
variable dmax equal 1.0e-2

# generate the box and atom positions using a diamond lattice

dimension    3
boundary     p p p
read_data    data.in
Reading data file ...
  orthogonal box = (-9.11425 -7.2914 -7.2914) to (9.11425 7.2914 7.2914)
  1 by 1 by 1 MPI processor grid
  reading atoms ...
  320 atoms
  read_data CPU = 0.003 seconds
replicate    1 1 1
Replication is creating a 1x1x1 = 1 times larger system...
  orthogonal box = (-9.11425 -7.2914 -7.2914) to (9.11425 7.2914 7.2914)
  1 by 1 by 1 MPI processor grid
  320 atoms
  replicate CPU = 0.000 seconds
change_box   all triclinic
Changing box ...
  triclinic box = (-9.11425 -7.2914 -7.2914) to (9.11425 7.2914 7.2914) with tilt (0 0 0)

# Need to set mass to something, just to satisfy LAMMPS in this case (or other case sw,tersoff, bop or lj, etc potential)
mass 1 58.933 # Co
mass 2 58.690 # Ni
mass 3 51.960 # Cr
mass 4 55.847 # Fe
mass 5 54.940 # Mn

include potential.mod
# NOTE: This script can be modified for different pair styles
# See in.elastic for more info.

variable elem string "Co Ni Cr Fe Mn"

#-------------------- Force field --------------------------------------------------------
pair_style      m3gnet /mnt/d/lammps/potentials/M3GNET
#pair_style      m3gnet/d3 /mnt/d/lammps/potentials/M3GNET

#pair_coeff      * *  MP-2021.2.8-EFS ${elem} # M3GNet <https://github.com/materialsvirtuallab/m3gnet> will be called
pair_coeff      * *  M3GNet-MP-2021.2.8-PES ${elem} # MatGL <https://github.com/materialsvirtuallab/matgl> will be called
pair_coeff      * *  M3GNet-MP-2021.2.8-PES Co Ni Cr Fe Mn 

# Setup neighbor style
neighbor 1.0 nsq
neigh_modify once no every 1 delay 0 check yes

# Setup minimization style
min_style	     cg
min_modify	     dmax ${dmax} line quadratic
min_modify	     dmax 0.01 line quadratic

# Setup output
thermo		1
thermo_style custom step temp pe press pxx pyy pzz pxy pxz pyz lx ly lz vol
thermo_modify norm no

# Compute initial state
fix 3 all box/relax  aniso 0.0
minimize ${etol} ${ftol} ${maxiter} ${maxeval}
minimize 0 ${ftol} ${maxiter} ${maxeval}
minimize 0 1e-10 ${maxiter} ${maxeval}
minimize 0 1e-10 100 ${maxeval}
minimize 0 1e-10 100 1000
No /omp style for force computation currently active
Neighbor list info ...
  update: every = 1 steps, delay = 0 steps, check = yes
  max neighbors/atom: 2000, page size: 100000
  master list distance cutoff = 6
  ghost atom cutoff = 6
  1 neighbor lists, perpetual/occasional/extra = 1 0 0
  (1) pair m3gnet, perpetual
      attributes: full, newton on, omp
      pair build: full/nsq/omp
      stencil: none
      bin: none
WARNING: Energy due to 3 extra global DOFs will be included in minimizer energies
 (../min.cpp:225)
Per MPI rank memory allocation (min/avg/max) = 4.234 | 4.234 | 4.234 Mbytes
   Step          Temp          PotEng         Press           Pxx            Pyy            Pzz            Pxy            Pxz            Pyz             Lx             Ly             Lz           Volume    
         0   0             -2536.0669     -133065.45     -126387.28     -137512.89     -135296.18     -449.05778      1137.0833      198.69686      18.2285        14.5828        14.5828        3876.4374    
         1   0             -2536.1604     -132798.88     -126128.9      -137244.94     -135022.81     -445.93163      1137.3085      201.742        18.226825      14.581342      14.581365      3875.3122    
         2   0             -2536.2537     -132531.79     -125869.88     -136976.39     -134749.08     -442.86676      1137.5278      204.79737      18.225149      14.579883      14.579931      3874.1872    
         3   0             -2536.3469     -132264.21     -125610.28     -136707.45     -134474.9      -439.8083       1137.751       207.84809      18.223474      14.578425      14.578496      3873.0626    
         4   0             -2536.4395     -131996.18     -125350.32     -136438.2      -134200.01     -436.74909      1137.9588      210.89886      18.2218        14.576967      14.577062      3871.9382    
         5   0             -2536.532      -131727.57     -125089.84     -136167.81     -133925.07     -433.69189      1138.1619      213.94389      18.220125      14.575509      14.575627      3870.8141    
         6   0             -2536.6245     -131458.4      -124828.7      -135897.34     -133649.16     -430.61976      1138.3556      216.99531      18.21845       14.57405       14.574193      3869.6904    
         7   0             -2536.7168     -131188.66     -124566.86     -135626.19     -133372.93     -427.56491      1138.546       220.03737      18.216776      14.572592      14.572759      3868.5668    
         8   0             -2536.8088     -130918.33     -124304.88     -135354.02     -133096.09     -424.50417      1138.7317      223.09615      18.215102      14.571134      14.571325      3867.4436    
         9   0             -2536.9006     -130647.81     -124042.22     -135082.04     -132819.18     -421.45577      1138.9044      226.13112      18.213428      14.569675      14.569891      3866.3207    
        10   0             -2536.9922     -130376.45     -123778.98     -134809        -132541.36     -418.4055       1139.0861      229.17252      18.211754      14.568217      14.568457      3865.198     
        11   0             -2537.0835     -130104.66     -123515.33     -134535.5      -132263.15     -415.3508       1139.2528      232.22115      18.210081      14.566759      14.567023      3864.0756    
        12   0             -2537.175      -129832.53     -123251.28     -134261.68     -131984.64     -412.29495      1139.4076      235.26471      18.208407      14.565301      14.56559       3862.9535    
        13   0             -2537.2659     -129559.75     -122986.47     -133987.13     -131705.66     -409.23097      1139.5648      238.30542      18.206734      14.563842      14.564156      3861.8317    
        14   0             -2537.3567     -129286.35     -122721.14     -133711.77     -131426.14     -406.18335      1139.7157      241.34127      18.205061      14.562384      14.562723      3860.7102    
        15   0             -2537.447      -129012.61     -122455.43     -133436.35     -131146.06     -403.13327      1139.8512      244.38035      18.203388      14.560926      14.561289      3859.589     
        16   0             -2537.5374     -128738.16     -122188.99     -133160.13     -130865.34     -400.08579      1139.9831      247.4246       18.201716      14.559468      14.559856      3858.468     
        17   0             -2537.6274     -128463.43     -121922.33     -132883.55     -130584.41     -397.04864      1140.1109      250.45685      18.200043      14.558009      14.558423      3857.3473    
        18   0             -2537.7168     -128188.18     -121655.09     -132606.31     -130303.14     -393.98485      1140.2225      253.49796      18.198371      14.556551      14.55699       3856.2269    
        19   0             -2537.8069     -127912.3      -121387.3      -132328.56     -130021.03     -390.94874      1140.3426      256.53755      18.196699      14.555093      14.555557      3855.1068    
        20   0             -2537.8962     -127635.87     -121118.93     -132050.07     -129738.61     -387.90178      1140.4507      259.57134      18.195027      14.553634      14.554124      3853.987     
        21   0             -2537.9856     -127358.97     -120850.19     -131771.05     -129455.66     -384.85029      1140.5449      262.60018      18.193355      14.552176      14.552692      3852.8675    
        22   0             -2538.0745     -127081.7      -120580.86     -131491.83     -129172.41     -381.81429      1140.634       265.64814      18.191684      14.550718      14.551259      3851.7482    
        23   0             -2538.1633     -126803.66     -120310.88     -131211.6      -128888.48     -378.77113      1140.7251      268.66816      18.190013      14.54926       14.549827      3850.6293    
        24   0             -2538.2517     -126525.19     -120040.59     -130930.77     -128604.21     -375.73119      1140.8089      271.71125      18.188342      14.547801      14.548394      3849.5106    
        25   0             -2538.3403     -126246.3      -119769.76     -130649.8      -128319.34     -372.69414      1140.8722      274.73189      18.186671      14.546343      14.546962      3848.3922    
        26   0             -2538.4285     -125966.73     -119498.37     -130367.97     -128033.86     -369.66232      1140.9368      277.76992      18.185         14.544885      14.54553       3847.2741    
        27   0             -2538.5161     -125686.77     -119226.54     -130085.59     -127748.18     -366.63358      1140.9828      280.80959      18.183329      14.543426      14.544098      3846.1562    
        28   0             -2538.604      -125406.33     -118954.38     -129802.73     -127461.86     -363.58276      1141.0263      283.83605      18.181659      14.541968      14.542665      3845.0387    
        29   0             -2538.6914     -125125.37     -118681.4      -129519.42     -127175.27     -360.56508      1141.0657      286.87363      18.179989      14.54051       14.541234      3843.9214    
        30   0             -2538.7786     -124843.82     -118408.02     -129235.52     -126887.91     -357.51951      1141.0998      289.90883      18.178319      14.539052      14.539802      3842.8044    
        31   0             -2538.8657     -124561.77     -118134.08     -128951.05     -126600.17     -354.49603      1141.1314      292.93822      18.176649      14.537593      14.53837       3841.6878    
        32   0             -2538.9524     -124279.31     -117859.93     -128666        -126312.01     -351.47072      1141.1434      295.96017      18.17498       14.536135      14.536938      3840.5713    
        33   0             -2539.0391     -123996.22     -117585.1      -128380.2      -126023.36     -348.44772      1141.149       299.0037       18.17331       14.534677      14.535507      3839.4552    
        34   0             -2539.1257     -123712.77     -117309.81     -128094.3      -125734.21     -345.42092      1141.1246      302.00792      18.171641      14.533218      14.534075      3838.3394    
        35   0             -2539.2119     -123428.69     -117033.96     -127807.56     -125444.56     -342.423        1141.1305      305.03194      18.169972      14.53176       14.532644      3837.2238    
        36   0             -2539.2979     -123144.06     -116757.61     -127520.2      -125154.36     -339.40149      1141.1215      308.06506      18.168304      14.530302      14.531213      3836.1085    
        37   0             -2539.3833     -122858.97     -116480.77     -127232.33     -124863.82     -336.37998      1141.1051      311.10515      18.166635      14.528844      14.529782      3834.9936    
        38   0             -2539.469      -122573.44     -116203.55     -126944.05     -124572.73     -333.36518      1141.0681      314.13866      18.164967      14.527385      14.528351      3833.8789    
        39   0             -2539.5542     -122287.3      -115925.79     -126654.87     -124281.23     -330.34989      1141.0348      317.16695      18.163299      14.525927      14.52692       3832.7644    
        40   0             -2539.6392     -122000.67     -115647.51     -126365.33     -123989.17     -327.34034      1140.993       320.20805      18.161631      14.524469      14.525489      3831.6503    
        41   0             -2539.7239     -121713.61     -115368.65     -126075.41     -123696.76     -324.32978      1140.9408      323.23421      18.159963      14.523011      14.524058      3830.5364    
        42   0             -2539.8088     -121425.95     -115089.5      -125784.69     -123403.65     -321.32523      1140.876       326.272        18.158296      14.521552      14.522628      3829.4229    
        43   0             -2539.8931     -121137.7      -114809.7      -125493.35     -123110.07     -318.3267       1140.812       329.32186      18.156629      14.520094      14.521197      3828.3096    
        44   0             -2539.9773     -120848.95     -114529.31     -125201.54     -122816        -315.32166      1140.7286      332.3573       18.154961      14.518636      14.519766      3827.1966    
        45   0             -2540.061      -120560.05     -114248.89     -124909.32     -122521.93     -312.31209      1140.6396      335.39166      18.153295      14.517177      14.518336      3826.0839    
        46   0             -2540.145      -120270.31     -113967.7      -124616.41     -122226.81     -309.31359      1140.5543      338.43019      18.151628      14.515719      14.516906      3824.9714    
        47   0             -2540.2285     -119980.13     -113686.05     -124322.81     -121931.53     -306.32386      1140.4468      341.47219      18.149962      14.514261      14.515476      3823.8593    
        48   0             -2540.3118     -119689.4      -113403.87     -124028.9      -121635.42     -303.3276       1140.3347      344.50994      18.148295      14.512803      14.514045      3822.7474    
        49   0             -2540.3948     -119398.15     -113121.29     -123734.22     -121338.93     -300.33249      1140.2148      347.5532       18.146629      14.511344      14.512615      3821.6358    
        50   0             -2540.4775     -119106.55     -112838.25     -123439.16     -121042.24     -297.35382      1140.1009      350.5847       18.144963      14.509886      14.511186      3820.5245    
        51   0             -2540.5603     -118814.38     -112554.78     -123143.46     -120744.91     -294.36698      1139.963       353.62722      18.143298      14.508428      14.509756      3819.4135    
        52   0             -2540.6426     -118521.53     -112270.57     -122847.19     -120446.83     -291.38829      1139.8114      356.67584      18.141632      14.506969      14.508326      3818.3028    
        53   0             -2540.7251     -118228.23     -111986.09     -122550.17     -120148.41     -288.40055      1139.6549      359.72484      18.139967      14.505511      14.506896      3817.1923    
        54   0             -2540.8069     -117934.5      -111701.2      -122252.78     -119849.52     -285.42619      1139.4969      362.77709      18.138302      14.504053      14.505467      3816.0822    
        55   0             -2540.8887     -117640.34     -111415.75     -121954.86     -119550.42     -282.44959      1139.3246      365.82393      18.136638      14.502595      14.504037      3814.9723    
        56   0             -2540.97       -117345.73     -111129.89     -121656.55     -119250.75     -279.46388      1139.1443      368.87289      18.134973      14.501136      14.502608      3813.8627    
        57   0             -2541.0515     -117050.32     -110843.59     -121357.06     -118950.3      -276.50051      1138.9541      371.93214      18.133309      14.499678      14.501179      3812.7534    
        58   0             -2541.1323     -116754.46     -110556.5      -121057.38     -118649.49     -273.52368      1138.752       374.98322      18.131644      14.49822       14.499749      3811.6443    
        59   0             -2541.2131     -116458.14     -110269.15     -120757.15     -118348.11     -270.55442      1138.5408      378.04038      18.129981      14.496761      14.49832       3810.5356    
        60   0             -2541.2939     -116161.28     -109981.26     -120456.21     -118046.36     -267.59062      1138.3156      381.0946       18.128317      14.495303      14.496891      3809.4271    
        61   0             -2541.3743     -115864.05     -109693.09     -120155.05     -117744.01     -264.62968      1138.0882      384.15641      18.126653      14.493845      14.495462      3808.3189    
        62   0             -2541.4543     -115566.23     -109404.35     -119853.03     -117441.3      -261.67545      1137.8505      387.21573      18.12499       14.492387      14.494033      3807.211     
        63   0             -2541.5342     -115267.84     -109115.29     -119550.29     -117137.94     -258.71908      1137.6078      390.28232      18.123327      14.490928      14.492605      3806.1034    
        64   0             -2541.614      -114968.98     -108825.56     -119247.15     -116834.24     -255.75548      1137.3543      393.35613      18.121664      14.48947       14.491176      3804.9961    
        65   0             -2541.6934     -114669.44     -108535.31     -118943.38     -116529.65     -252.81325      1137.0883      396.42033      18.120002      14.488012      14.489747      3803.889     
        66   0             -2541.7727     -114369.72     -108244.85     -118639.25     -116225.07     -249.85997      1136.8139      399.48542      18.118339      14.486554      14.488319      3802.7822    
        67   0             -2541.8516     -114069.24     -107953.68     -118334.32     -115919.72     -246.92398      1136.5268      402.55767      18.116677      14.485095      14.48689       3801.6757    
        68   0             -2541.9304     -113768.42     -107662.34     -118028.94     -115613.98     -243.97772      1136.2355      405.62839      18.115015      14.483637      14.485462      3800.5695    
        69   0             -2542.0088     -113466.95     -107370.27     -117722.91     -115307.67     -241.04076      1135.9305      408.70701      18.113353      14.482179      14.484034      3799.4636    
        70   0             -2542.0872     -113165.07     -107077.93     -117416.37     -115000.9      -238.11162      1135.6178      411.78175      18.111692      14.48072       14.482606      3798.3579    
        71   0             -2542.165      -112862.57     -106784.97     -117109.07     -114693.65     -235.17739      1135.2982      414.87206      18.11003       14.479262      14.481178      3797.2525    
        72   0             -2542.2432     -112559.64     -106491.71     -116801.43     -114385.78     -232.25885      1134.9622      417.94655      18.108369      14.477804      14.47975       3796.1475    
        73   0             -2542.3208     -112256.06     -106197.77     -116493.09     -114077.32     -229.32097      1134.6201      421.03492      18.106708      14.476346      14.478322      3795.0426    
        74   0             -2542.3979     -111951.89     -105903.4      -116183.94     -113768.33     -226.40554      1134.2529      424.12896      18.105047      14.474887      14.476894      3793.9381    
        75   0             -2542.4753     -111647.43     -105608.71     -115874.51     -113459.05     -223.48454      1133.8908      427.22691      18.103387      14.473429      14.475466      3792.8339    
        76   0             -2542.5522     -111342.3      -105313.54     -115564.4      -113148.96     -220.56399      1133.5113      430.31835      18.101727      14.471971      14.474038      3791.7299    
        77   0             -2542.6292     -111036.74     -105017.86     -115253.67     -112838.69     -217.66301      1133.1418      433.41239      18.100067      14.470512      14.472611      3790.6262    
        78   0             -2542.7056     -110730.54     -104721.59     -114942.27     -112527.75     -214.74848      1132.7472      436.51604      18.098407      14.469054      14.471183      3789.5228    
        79   0             -2542.782      -110424.01     -104425.21     -114630.53     -112216.3      -211.85393      1132.3772      439.62412      18.096747      14.467596      14.469756      3788.4197    
        80   0             -2542.8579     -110116.84     -104128.17     -114318.11     -111904.22     -208.95945      1131.962       442.73574      18.095088      14.466138      14.468328      3787.3168    
        81   0             -2542.9338     -109809.12     -103830.71     -114004.93     -111591.72     -206.0554       1131.539       445.8417       18.093428      14.464679      14.466901      3786.2143    
        82   0             -2543.009      -109500.9      -103532.66     -113691.35     -111278.68     -203.17182      1131.1118      448.94915      18.091769      14.463221      14.465474      3785.112     
        83   0             -2543.0845     -109192.11     -103234.21     -113377.16     -110964.95     -200.2763       1130.6724      452.06126      18.090111      14.461763      14.464047      3784.01      
        84   0             -2543.1597     -108882.86     -102935.41     -113062.3      -110650.88     -197.39122      1130.2206      455.1851       18.088452      14.460304      14.46262       3782.9082    
        85   0             -2543.2346     -108573.06     -102636.07     -112746.96     -110336.14     -194.51227      1129.7575      458.29602      18.086794      14.458846      14.461193      3781.8068    
        86   0             -2543.3091     -108262.67     -102336.19     -112430.87     -110020.96     -191.63616      1129.2895      461.41427      18.085135      14.457388      14.459766      3780.7056    
        87   0             -2543.3835     -107951.73     -102035.85     -112114.11     -109705.23     -188.76488      1128.8064      464.53726      18.083477      14.45593       14.458339      3779.6047    
        88   0             -2543.4578     -107640.37     -101735.2      -111796.96     -109388.93     -185.8981       1128.3196      467.66307      18.08182       14.454471      14.456912      3778.5041    
        89   0             -2543.5317     -107328.51     -101434.09     -111479.21     -109072.24     -183.04654      1127.815       470.78777      18.080162      14.453013      14.455486      3777.4038    
        90   0             -2543.6055     -107016.02     -101132.39     -111160.96     -108754.73     -180.18632      1127.3072      473.92018      18.078505      14.451555      14.454059      3776.3037    
        91   0             -2543.6787     -106702.83     -100830.26     -110841.64     -108436.59     -177.32675      1126.7864      477.05684      18.076848      14.450097      14.452633      3775.2039    
        92   0             -2543.7522     -106389.35     -100527.67     -110522.27     -108118.12     -174.4794       1126.259       480.19216      18.075191      14.448638      14.451206      3774.1044    
        93   0             -2543.8252     -106075.23     -100224.68     -110201.98     -107799.03     -171.63983      1125.7192      483.33254      18.073534      14.44718       14.44978       3773.0052    
        94   0             -2543.8979     -105760.55     -99921.133     -109881.08     -107479.43     -168.79462      1125.1709      486.47195      18.071878      14.445722      14.448354      3771.9063    
        95   0             -2543.9702     -105445.35     -99617.121     -109559.7      -107159.22     -165.96487      1124.6093      489.61576      18.070221      14.444263      14.446928      3770.8076    
        96   0             -2544.0425     -105129.56     -99312.689     -109237.62     -106838.38     -163.13082      1124.0377      492.7602       18.068565      14.442805      14.445502      3769.7092    
        97   0             -2544.1147     -104813.36     -99007.885     -108915.07     -106517.13     -160.30038      1123.4599      495.89783      18.066909      14.441347      14.444076      3768.6111    
        98   0             -2544.1865     -104496.45     -98702.481     -108591.75     -106195.13     -157.47809      1122.8706      499.06261      18.065254      14.439889      14.44265       3767.5133    
        99   0             -2544.2583     -104178.99     -98396.666     -108267.8      -105872.49     -154.65867      1122.2738      502.22088      18.063598      14.43843       14.441224      3766.4157    
       100   0             -2544.3298     -103860.99     -98090.25      -107943.27     -105549.46     -151.85268      1121.6584      505.37299      18.061943      14.436972      14.439798      3765.3184    
Loop time of 18.3198 on 1 procs for 100 steps with 320 atoms

904.5% CPU use with 1 MPI tasks x no OpenMP threads

Minimization stats:
  Stopping criterion = max iterations
  Energy initial, next-to-last, final = 
     -2536.06689453125  -2544.25830078125  -2544.32983398438
  Force two-norm initial, final = 558.01043 427.26574
  Force max component initial, final = 332.70998 256.24283
  Final line search alpha, max atom move = 3.8901096e-07 9.968127e-05
  Iterations, force evaluations = 100 100

MPI task timing breakdown:
Section |  min time  |  avg time  |  max time  |%varavg| %total
---------------------------------------------------------------
Pair    | 18.293     | 18.293     | 18.293     |   0.0 | 99.85
Neigh   | 0          | 0          | 0          |   0.0 |  0.00
Comm    | 0.00091254 | 0.00091254 | 0.00091254 |   0.0 |  0.00
Output  | 0.023158   | 0.023158   | 0.023158   |   0.0 |  0.13
Modify  | 0.00024719 | 0.00024719 | 0.00024719 |   0.0 |  0.00
Other   |            | 0.002796   |            |       |  0.02

Nlocal:            320 ave         320 max         320 min
Histogram: 1 0 0 0 0 0 0 0 0 0
Nghost:           1592 ave        1592 max        1592 min
Histogram: 1 0 0 0 0 0 0 0 0 0
Neighs:              0 ave           0 max           0 min
Histogram: 1 0 0 0 0 0 0 0 0 0
FullNghs:        24960 ave       24960 max       24960 min
Histogram: 1 0 0 0 0 0 0 0 0 0

Total # of neighbors = 24960
Ave neighs/atom = 78
Neighbor list builds = 0
Dangerous builds = 0

variable tmp equal pxx
variable pxx0 equal ${tmp}
variable pxx0 equal -98090.2502489
variable tmp equal pyy
variable pyy0 equal ${tmp}
variable pyy0 equal -107943.269220363
variable tmp equal pzz
variable pzz0 equal ${tmp}
variable pzz0 equal -105549.461035982
variable tmp equal pyz
variable pyz0 equal ${tmp}
variable pyz0 equal 505.372992797127
variable tmp equal pxz
variable pxz0 equal ${tmp}
variable pxz0 equal 1121.6584492414
variable tmp equal pxy
variable pxy0 equal ${tmp}
variable pxy0 equal -151.85268382207

variable tmp equal lx
variable lx0 equal ${tmp}
variable lx0 equal 18.0619431490031
variable tmp equal ly
variable ly0 equal ${tmp}
variable ly0 equal 14.436972
variable tmp equal lz
variable lz0 equal ${tmp}
variable lz0 equal 14.4397982481815

# These formulas define the derivatives w.r.t. strain components
# Constants uses $, variables use v_
variable d1 equal -(v_pxx1-${pxx0})/(v_delta/v_len0)*${cfac}
variable d1 equal -(v_pxx1--98090.2502489)/(v_delta/v_len0)*${cfac}
variable d1 equal -(v_pxx1--98090.2502489)/(v_delta/v_len0)*0.0001
variable d2 equal -(v_pyy1-${pyy0})/(v_delta/v_len0)*${cfac}
variable d2 equal -(v_pyy1--107943.269220363)/(v_delta/v_len0)*${cfac}
variable d2 equal -(v_pyy1--107943.269220363)/(v_delta/v_len0)*0.0001
variable d3 equal -(v_pzz1-${pzz0})/(v_delta/v_len0)*${cfac}
variable d3 equal -(v_pzz1--105549.461035982)/(v_delta/v_len0)*${cfac}
variable d3 equal -(v_pzz1--105549.461035982)/(v_delta/v_len0)*0.0001
variable d4 equal -(v_pyz1-${pyz0})/(v_delta/v_len0)*${cfac}
variable d4 equal -(v_pyz1-505.372992797127)/(v_delta/v_len0)*${cfac}
variable d4 equal -(v_pyz1-505.372992797127)/(v_delta/v_len0)*0.0001
variable d5 equal -(v_pxz1-${pxz0})/(v_delta/v_len0)*${cfac}
variable d5 equal -(v_pxz1-1121.6584492414)/(v_delta/v_len0)*${cfac}
variable d5 equal -(v_pxz1-1121.6584492414)/(v_delta/v_len0)*0.0001
variable d6 equal -(v_pxy1-${pxy0})/(v_delta/v_len0)*${cfac}
variable d6 equal -(v_pxy1--151.85268382207)/(v_delta/v_len0)*${cfac}
variable d6 equal -(v_pxy1--151.85268382207)/(v_delta/v_len0)*0.0001

displace_atoms all random ${atomjiggle} ${atomjiggle} ${atomjiggle} 87287 units box
displace_atoms all random 1e-05 ${atomjiggle} ${atomjiggle} 87287 units box
displace_atoms all random 1e-05 1e-05 ${atomjiggle} 87287 units box
displace_atoms all random 1e-05 1e-05 1e-05 87287 units box
Displacing atoms ...

# Write restart
unfix 3
write_restart restart.equil
System init for write_restart ...
No /omp style for force computation currently active

# uxx Perturbation

variable dir equal 1
include displace.mod
# NOTE: This script should not need to be
# modified. See in.elastic for more info.
#
# Find which reference length to use

if "${dir} == 1" then    "variable len0 equal ${lx0}"
variable len0 equal ${lx0}
variable len0 equal 18.0619431490031
if "${dir} == 2" then    "variable len0 equal ${ly0}"
if "${dir} == 3" then    "variable len0 equal ${lz0}"
if "${dir} == 4" then    "variable len0 equal ${lz0}"
if "${dir} == 5" then    "variable len0 equal ${lz0}"
if "${dir} == 6" then    "variable len0 equal ${ly0}"

# Reset box and simulation parameters

clear
package omp 8
WARNING: OpenMP support not enabled during compilation; using 1 thread only. (../fix_omp.cpp:116)
box tilt large

The 'box' command has been removed and will be ignored

read_restart restart.equil
Reading restart file ...
  restart file = 2 Aug 2023, LAMMPS = 2 Aug 2023
  restoring atom style atomic from restart
  triclinic box = (-9.0309716 -7.218486 -7.2198991) to (9.0309716 7.218486 7.2198991) with tilt (0 0 0)
  1 by 1 by 1 MPI processor grid
  pair style m3gnet stores no restart info
  320 atoms
  read_restart CPU = 0.008 seconds
include potential.mod
# NOTE: This script can be modified for different pair styles
# See in.elastic for more info.

variable elem string "Co Ni Cr Fe Mn"

#-------------------- Force field --------------------------------------------------------
pair_style      m3gnet /mnt/d/lammps/potentials/M3GNET
#pair_style      m3gnet/d3 /mnt/d/lammps/potentials/M3GNET

#pair_coeff      * *  MP-2021.2.8-EFS ${elem} # M3GNet <https://github.com/materialsvirtuallab/m3gnet> will be called
pair_coeff      * *  M3GNet-MP-2021.2.8-PES ${elem} # MatGL <https://github.com/materialsvirtuallab/matgl> will be called
pair_coeff      * *  M3GNet-MP-2021.2.8-PES Co Ni Cr Fe Mn 

# Setup neighbor style
neighbor 1.0 nsq
neigh_modify once no every 1 delay 0 check yes

# Setup minimization style
min_style	     cg
min_modify	     dmax ${dmax} line quadratic
min_modify	     dmax 0.01 line quadratic

# Setup output
thermo		1
thermo_style custom step temp pe press pxx pyy pzz pxy pxz pyz lx ly lz vol
thermo_modify norm no

# Negative deformation

variable delta equal -${up}*${len0}
variable delta equal -1e-06*${len0}
variable delta equal -1e-06*18.0619431490031
variable deltaxy equal -${up}*xy
variable deltaxy equal -1e-06*xy
variable deltaxz equal -${up}*xz
variable deltaxz equal -1e-06*xz
variable deltayz equal -${up}*yz
variable deltayz equal -1e-06*yz
if "${dir} == 1" then    "change_box all x delta 0 ${delta} xy delta ${deltaxy} xz delta ${deltaxz} remap units box"
change_box all x delta 0 ${delta} xy delta ${deltaxy} xz delta ${deltaxz} remap units box
change_box all x delta 0 -1.80619431490031e-05 xy delta ${deltaxy} xz delta ${deltaxz} remap units box
change_box all x delta 0 -1.80619431490031e-05 xy delta -0 xz delta ${deltaxz} remap units box
change_box all x delta 0 -1.80619431490031e-05 xy delta -0 xz delta -0 remap units box
Changing box ...
  triclinic box = (-9.0309716 -7.218486 -7.2198991) to (9.0309535 7.218486 7.2198991) with tilt (0 0 0)
  triclinic box = (-9.0309716 -7.218486 -7.2198991) to (9.0309535 7.218486 7.2198991) with tilt (0 0 0)
  triclinic box = (-9.0309716 -7.218486 -7.2198991) to (9.0309535 7.218486 7.2198991) with tilt (0 0 0)
if "${dir} == 2" then    "change_box all y delta 0 ${delta} yz delta ${deltayz} remap units box"
if "${dir} == 3" then    "change_box all z delta 0 ${delta} remap units box"
if "${dir} == 4" then    "change_box all yz delta ${delta} remap units box"
if "${dir} == 5" then    "change_box all xz delta ${delta} remap units box"
if "${dir} == 6" then    "change_box all xy delta ${delta} remap units box"

# Relax atoms positions

minimize ${etol} ${ftol} ${maxiter} ${maxeval}
minimize 0 ${ftol} ${maxiter} ${maxeval}
minimize 0 1e-10 ${maxiter} ${maxeval}
minimize 0 1e-10 100 ${maxeval}
minimize 0 1e-10 100 1000
No /omp style for force computation currently active
Neighbor list info ...
  update: every = 1 steps, delay = 0 steps, check = yes
  max neighbors/atom: 2000, page size: 100000
  master list distance cutoff = 6
  ghost atom cutoff = 6
  1 neighbor lists, perpetual/occasional/extra = 1 0 0
  (1) pair m3gnet, perpetual
      attributes: full, newton on, omp
      pair build: full/nsq/omp
      stencil: none
      bin: none
Per MPI rank memory allocation (min/avg/max) = 4.226 | 4.226 | 4.226 Mbytes
   Step          Temp          PotEng         Press           Pxx            Pyy            Pzz            Pxy            Pxz            Pyz             Lx             Ly             Lz           Volume    
       100   0             -2544.3303     -103860.35     -98089.85      -107942.43     -105548.76     -151.97347      1121.7201      505.39825      18.061925      14.436972      14.439798      3765.3147    
       101   0             -2544.5867     -103623.36     -97932.713     -107547.07     -105390.3      -184.75881      1123.957       488.73998      18.061925      14.436972      14.439798      3765.3147    
       102   0             -2544.8271     -103326.21     -97704.594     -107095.71     -105178.34     -221.82079      1134.9251      465.83656      18.061925      14.436972      14.439798      3765.3147    
       103   0             -2545.0542     -102971.88     -97405.608     -106592.07     -104917.96     -262.8169       1155.9132      438.09127      18.061925      14.436972      14.439798      3765.3147    
       104   0             -2545.27       -102562.21     -97034.476     -106041.2      -104610.96     -307.40838      1187.6232      406.82875      18.061925      14.436972      14.439798      3765.3147    
       105   0             -2545.4761     -102097.43     -96589.157     -105445.66     -104257.46     -355.27513      1230.0096      373.3901       18.061925      14.436972      14.439798      3765.3147    
       106   0             -2545.6743     -101575.51     -96066.334     -104806.91     -103853.29     -405.84099      1282.4901      339.05124      18.061925      14.436972      14.439798      3765.3147    
       107   0             -2545.864      -100992.83     -95462.153     -104123.74     -103392.61     -457.98503      1343.1992      305.04221      18.061925      14.436972      14.439798      3765.3147    
       108   0             -2546.0464     -100345.51     -94774.172     -103393.83     -102868.51     -509.76358      1408.0786      272.4061       18.061925      14.436972      14.439798      3765.3147    
       109   0             -2546.217      -99649.374     -94022.563     -102634.1      -102291.46     -557.45907      1468.6621      242.52838      18.061925      14.436972      14.439798      3765.3147    
       110   0             -2546.3774     -98882.105     -93183.32      -101817.98     -101645.01     -605.09677      1509.4835      205.36494      18.061925      14.436972      14.439798      3765.3147    
       111   0             -2546.5325     -98023.607     -92243.455     -100927.73     -100899.64     -624.27605      1525.3401      202.95102      18.061925      14.436972      14.439798      3765.3147    
       112   0             -2546.675      -97165.472     -91298.039     -100047.7      -100150.68     -664.90735      1533.2364      194.82332      18.061925      14.436972      14.439798      3765.3147    
       113   0             -2546.8098     -96272.153     -90329.564     -99147.656     -99339.239     -702.95984      1564.911       175.6968       18.061925      14.436972      14.439798      3765.3147    
       114   0             -2546.9326     -95439.579     -89410.603     -98307.049     -98601.086     -742.55818      1590.8203      152.89983      18.061925      14.436972      14.439798      3765.3147    
       115   0             -2547.0479     -94596.258     -88494.151     -97448.351     -97846.272     -768.68513      1617.1293      119.72019      18.061925      14.436972      14.439798      3765.3147    
       116   0             -2547.1641     -93672.818     -87532.466     -96490.967     -96995.022     -769.54143      1644.2353      75.903641      18.061925      14.436972      14.439798      3765.3147    
       117   0             -2547.2639     -92846.53      -86659.33      -95668.662     -96211.598     -801.6161       1624.2975      53.578732      18.061925      14.436972      14.439798      3765.3147    
       118   0             -2547.3464     -92165.991     -85950.607     -95001.853     -95545.514     -829.36482      1601.0565      42.0419        18.061925      14.436972      14.439798      3765.3147    
       119   0             -2547.4194     -91544.294     -85324.214     -94369.748     -94938.92      -847.02768      1581.6014      36.757802      18.061925      14.436972      14.439798      3765.3147    
       120   0             -2547.4868     -90988.607     -84755.595     -93810.408     -94399.817     -880.63695      1564.3357      25.896659      18.061925      14.436972      14.439798      3765.3147    
       121   0             -2547.5547     -90408.064     -84173.034     -93254.063     -93797.095     -902.98862      1558.8349      20.395653      18.061925      14.436972      14.439798      3765.3147    
       122   0             -2547.6165     -89896.237     -83683.284     -92748.273     -93257.153     -919.98883      1540.547       20.837484      18.061925      14.436972      14.439798      3765.3147    
       123   0             -2547.6738     -89375.988     -83203.29      -92223.666     -92701.008     -965.9081       1523.1181      12.199921      18.061925      14.436972      14.439798      3765.3147    
       124   0             -2547.7268     -88939.523     -82804.531     -91784.556     -92229.483     -983.77951      1512.1293     -2.0869551      18.061925      14.436972      14.439798      3765.3147    
       125   0             -2547.7766     -88503.869     -82427.553     -91335.624     -91748.431     -1002.0039      1489.4498     -62.868278      18.061925      14.436972      14.439798      3765.3147    
       126   0             -2547.8254     -88109.293     -82059.225     -90965.054     -91303.599     -1009.5375      1472.4745     -62.547838      18.061925      14.436972      14.439798      3765.3147    
       127   0             -2547.8738     -87687.559     -81674.608     -90541.785     -90846.284     -1019.8749      1429.9262     -84.582887      18.061925      14.436972      14.439798      3765.3147    
       128   0             -2547.9202     -87309.376     -81342.453     -90153.973     -90431.702     -1022.9891      1411.5656     -109.94925      18.061925      14.436972      14.439798      3765.3147    
       129   0             -2547.9644     -86955.897     -81037.325     -89799.436     -90030.93      -1056.1534      1396.9903     -155.54382      18.061925      14.436972      14.439798      3765.3147    
       130   0             -2548.0066     -86620.89      -80776.476     -89470.151     -89616.044     -1054.9664      1396.6804     -199.7209       18.061925      14.436972      14.439798      3765.3147    
       131   0             -2548.0461     -86286.64      -80501.636     -89148.505     -89209.779     -1052.5253      1401.5948     -235.73671      18.061925      14.436972      14.439798      3765.3147    
       132   0             -2548.0847     -85982.866     -80243.858     -88857.253     -88847.487     -1082.4595      1418.39       -269.82615      18.061925      14.436972      14.439798      3765.3147    
       133   0             -2548.1226     -85674.524     -80005.363     -88557.179     -88461.03      -1085.9172      1432.2122     -340.13842      18.061925      14.436972      14.439798      3765.3147    
       134   0             -2548.1582     -85380.373     -79760.069     -88261.626     -88119.424     -1128.2068      1447.4911     -361.68975      18.061925      14.436972      14.439798      3765.3147    
       135   0             -2548.1924     -85118.902     -79573.687     -87992.938     -87790.082     -1151.8653      1431.4861     -430.71125      18.061925      14.436972      14.439798      3765.3147    
       136   0             -2548.2258     -84838.688     -79328.498     -87730.411     -87457.154     -1157.6935      1465.5877     -455.51893      18.061925      14.436972      14.439798      3765.3147    
       137   0             -2548.2603     -84575.605     -79150.642     -87428.43      -87147.744     -1188.1021      1469.0023     -484.29679      18.061925      14.436972      14.439798      3765.3147    
       138   0             -2548.2935     -84272.812     -78907.031     -87130.731     -86780.675     -1211.1527      1499.6711     -548.8079       18.061925      14.436972      14.439798      3765.3147    
       139   0             -2548.3232     -84050.43      -78748.22      -86903.337     -86499.732     -1223.2666      1512.3661     -576.83598      18.061925      14.436972      14.439798      3765.3147    
       140   0             -2548.3513     -83821.352     -78568.581     -86678.317     -86217.158     -1230.6122      1527.3935     -597.86859      18.061925      14.436972      14.439798      3765.3147    
       141   0             -2548.3779     -83634.585     -78465.737     -86449.388     -85988.63      -1237.7633      1472.4085     -642.46396      18.061925      14.436972      14.439798      3765.3147    
       142   0             -2548.4038     -83401.163     -78269.023     -86239.894     -85694.574     -1244.5707      1476.0432     -650.22732      18.061925      14.436972      14.439798      3765.3147    
       143   0             -2548.427      -83209.85      -78119.458     -86046.155     -85463.937     -1270.43        1465.3412     -712.92782      18.061925      14.436972      14.439798      3765.3147    
       144   0             -2548.4473     -83017.602     -77989.491     -85868.533     -85194.782     -1280.5157      1444.4712     -734.92574      18.061925      14.436972      14.439798      3765.3147    
       145   0             -2548.4656     -82866.694     -77873.501     -85714.143     -85012.439     -1293.6131      1450.3542     -772.9906       18.061925      14.436972      14.439798      3765.3147    
       146   0             -2548.4819     -82700.507     -77755.064     -85552.142     -84794.315     -1323.6084      1448.1759     -798.46324      18.061925      14.436972      14.439798      3765.3147    
       147   0             -2548.4976     -82557.991     -77684.239     -85378.135     -84611.6       -1382.0368      1446.3193     -828.41398      18.061925      14.436972      14.439798      3765.3147    
       148   0             -2548.5127     -82491.49      -77658.438     -85312.417     -84503.616     -1383.1702      1421.6131     -821.44478      18.061925      14.436972      14.439798      3765.3147    
       149   0             -2548.5278     -82357.523     -77570.409     -85163.673     -84338.487     -1421.5441      1401.7222     -841.65775      18.061925      14.436972      14.439798      3765.3147    
       150   0             -2548.5427     -82252.461     -77525.686     -85042.489     -84189.208     -1454.1947      1374.1298     -856.03149      18.061925      14.436972      14.439798      3765.3147    
       151   0             -2548.5571     -82144.442     -77459.425     -84943.174     -84030.727     -1491.8986      1370.2392     -871.65595      18.061925      14.436972      14.439798      3765.3147    
       152   0             -2548.5725     -82018.46      -77398.814     -84801.019     -83855.546     -1517.0503      1356.362      -885.80609      18.061925      14.436972      14.439798      3765.3147    
       153   0             -2548.5884     -81936.935     -77374.185     -84701.56      -83735.059     -1580.839       1344.2116     -900.51287      18.061925      14.436972      14.439798      3765.3147    
       154   0             -2548.6021     -81824.769     -77318.028     -84584.754     -83571.523     -1604.8807      1337.8948     -902.72703      18.061925      14.436972      14.439798      3765.3147    
       155   0             -2548.6138     -81772.005     -77347.049     -84511.674     -83457.292     -1625.0839      1329.6614     -895.1752       18.061925      14.436972      14.439798      3765.3147    
       156   0             -2548.624      -81733.146     -77358.006     -84444.698     -83396.734     -1674.497       1308.6147     -892.64185      18.061925      14.436972      14.439798      3765.3147    
       157   0             -2548.634      -81699.844     -77366.628     -84394.735     -83338.169     -1679.9896      1317.2742     -873.46018      18.061925      14.436972      14.439798      3765.3147    
       158   0             -2548.6431     -81636.637     -77368.544     -84289.916     -83251.451     -1736.0197      1311.752      -876.73419      18.061925      14.436972      14.439798      3765.3147    
       159   0             -2548.6514     -81623.664     -77384.061     -84269.069     -83217.863     -1734.4961      1318.3985     -865.94277      18.061925      14.436972      14.439798      3765.3147    
       160   0             -2548.6597     -81590.602     -77370.914     -84223.693     -83177.198     -1736.7846      1317.7962     -851.86915      18.061925      14.436972      14.439798      3765.3147    
       161   0             -2548.6677     -81517.519     -77339.796     -84139.942     -83072.818     -1778.7677      1318.976      -866.68075      18.061925      14.436972      14.439798      3765.3147    
       162   0             -2548.6768     -81499.806     -77349.552     -84115.995     -83033.87      -1769.194       1266.5357     -834.92236      18.061925      14.436972      14.439798      3765.3147    
       163   0             -2548.689      -81366.625     -77281.174     -83974.746     -82843.955     -1795.678       1232.2981     -836.91933      18.061925      14.436972      14.439798      3765.3147    
       164   0             -2548.7017     -81308.379     -77245.501     -83885.644     -82793.992     -1824.9099      1157.905      -823.77539      18.061925      14.436972      14.439798      3765.3147    
       165   0             -2548.7129     -81230.242     -77197.637     -83801.092     -82691.997     -1841.5998      1133.3697     -785.48001      18.061925      14.436972      14.439798      3765.3147    
       166   0             -2548.7229     -81156.737     -77168.793     -83691.686     -82609.733     -1868.6569      1097.0113     -756.17278      18.061925      14.436972      14.439798      3765.3147    
       167   0             -2548.7327     -81148.86      -77173.904     -83667.377     -82605.298     -1891.5224      1065.8893     -729.09387      18.061925      14.436972      14.439798      3765.3147    
       168   0             -2548.7417     -81093.58      -77124.509     -83596.939     -82559.293     -1896.8123      1020.4791     -721.23425      18.061925      14.436972      14.439798      3765.3147    
       169   0             -2548.7507     -81107.602     -77167.1       -83589.691     -82566.017     -1932.2881      985.39561     -692.47352      18.061925      14.436972      14.439798      3765.3147    
       170   0             -2548.7598     -81095.1       -77132.777     -83576.187     -82576.335     -1921.5159      942.51298     -681.20057      18.061925      14.436972      14.439798      3765.3147    
       171   0             -2548.7683     -81122.88      -77178.029     -83595.622     -82594.989     -1948.0035      917.57298     -657.61256      18.061925      14.436972      14.439798      3765.3147    
       172   0             -2548.7769     -81116.421     -77167.033     -83580.449     -82601.779     -1948.4574      886.88002     -653.11509      18.061925      14.436972      14.439798      3765.3147    
       173   0             -2548.7852     -81129.421     -77186.693     -83591.483     -82610.086     -1992.5174      862.75467     -665.27347      18.061925      14.436972      14.439798      3765.3147    
       174   0             -2548.7935     -81109.864     -77160.705     -83557.027     -82611.86      -1995.2308      845.46746     -664.82077      18.061925      14.436972      14.439798      3765.3147    
       175   0             -2548.802      -81146.01      -77195.414     -83599.18      -82643.436     -2028.0924      827.21972     -672.30898      18.061925      14.436972      14.439798      3765.3147    
       176   0             -2548.8115     -81139.876     -77190.46      -83593.706     -82635.463     -2028.9677      803.87765     -684.16851      18.061925      14.436972      14.439798      3765.3147    
       177   0             -2548.8218     -81160.383     -77243.704     -83599.561     -82637.886     -2045.6368      784.47157     -682.0258       18.061925      14.436972      14.439798      3765.3147    
       178   0             -2548.8328     -81118.156     -77244.595     -83517.021     -82592.853     -2043.3024      741.7901      -707.02525      18.061925      14.436972      14.439798      3765.3147    
       179   0             -2548.8433     -81187.436     -77378.601     -83545.726     -82637.981     -2091.3124      763.67112     -714.30246      18.061925      14.436972      14.439798      3765.3147    
       180   0             -2548.8545     -81121.647     -77335.557     -83468.564     -82560.819     -2104.7503      712.60968     -737.94195      18.061925      14.436972      14.439798      3765.3147    
       181   0             -2548.8628     -81103.482     -77391.185     -83411.573     -82507.69      -2100.3905      716.34093     -726.1678       18.061925      14.436972      14.439798      3765.3147    
       182   0             -2548.8694     -81081.955     -77414.111     -83372.911     -82458.843     -2086.4436      700.86995     -732.38591      18.061925      14.436972      14.439798      3765.3147    
       183   0             -2548.8757     -81069.053     -77469.238     -83334.506     -82403.415     -2048.7188      719.41288     -724.14385      18.061925      14.436972      14.439798      3765.3147    
       184   0             -2548.8816     -81003.916     -77430.524     -83262.132     -82319.091     -2036.6581      704.37627     -725.38423      18.061925      14.436972      14.439798      3765.3147    
       185   0             -2548.8877     -81006.546     -77481.245     -83244.89      -82293.504     -1983.0009      742.53948     -742.40157      18.061925      14.436972      14.439798      3765.3147    
       186   0             -2548.894      -80955.677     -77471.584     -83176.816     -82218.631     -1990.1113      723.23451     -739.38506      18.061925      14.436972      14.439798      3765.3147    
       187   0             -2548.8999     -80977.143     -77526.015     -83188.518     -82216.896     -1926.4539      741.5911      -731.67393      18.061925      14.436972      14.439798      3765.3147    
       188   0             -2548.905      -80903.576     -77468.48      -83117.24      -82125.009     -1963.4525      729.92968     -739.05947      18.061925      14.436972      14.439798      3765.3147    
       189   0             -2548.9104     -80929.61      -77507.318     -83142.885     -82138.628     -1906.2159      763.51123     -711.20823      18.061925      14.436972      14.439798      3765.3147    
       190   0             -2548.9158     -80876.576     -77449.459     -83098.176     -82082.094     -1928.86        721.46433     -719.85955      18.061925      14.436972      14.439798      3765.3147    
       191   0             -2548.9209     -80876.414     -77474.235     -83086.503     -82068.504     -1907.6996      771.05859     -710.99641      18.061925      14.436972      14.439798      3765.3147    
       192   0             -2548.9255     -80832.712     -77421.416     -83061.174     -82015.546     -1935.9502      731.9084      -711.61354      18.061925      14.436972      14.439798      3765.3147    
       193   0             -2548.9297     -80836.95      -77433.499     -83073.429     -82003.921     -1915.7237      756.45151     -719.92772      18.061925      14.436972      14.439798      3765.3147    
       194   0             -2548.9338     -80811.111     -77388.839     -83076.499     -81967.996     -1933.4775      734.41656     -722.2187       18.061925      14.436972      14.439798      3765.3147    
       195   0             -2548.9377     -80827.489     -77424.792     -83063.034     -81994.642     -1927.4029      787.68747     -723.5376       18.061925      14.436972      14.439798      3765.3147    
       196   0             -2548.9419     -80837.264     -77425.641     -83074.706     -82011.446     -1932.0555      778.37402     -711.88862      18.061925      14.436972      14.439798      3765.3147    
       197   0             -2548.9458     -80852.324     -77417.034     -83112.014     -82027.925     -1952.5163      778.34004     -720.61377      18.061925      14.436972      14.439798      3765.3147    
       198   0             -2548.9497     -80832.547     -77405.471     -83096.851     -81995.319     -1935.6786      794.57776     -711.45172      18.061925      14.436972      14.439798      3765.3147    
       199   0             -2548.9536     -80878.867     -77454.757     -83142.103     -82039.741     -1954.6144      790.4833      -719.53478      18.061925      14.436972      14.439798      3765.3147    
       200   0             -2548.9575     -80869.177     -77450.742     -83151.534     -82005.256     -1945.7199      793.51494     -715.97504      18.061925      14.436972      14.439798      3765.3147    
Loop time of 18.7371 on 1 procs for 100 steps with 320 atoms

902.9% CPU use with 1 MPI tasks x no OpenMP threads

Minimization stats:
  Stopping criterion = max iterations
  Energy initial, next-to-last, final = 
     -2544.33032226562  -2548.95361328125  -2548.95751953125
  Force two-norm initial, final = 3.6856317 0.17424883
  Force max component initial, final = 0.51797265 0.070575178
  Final line search alpha, max atom move = 0.12306027 0.0086850006
  Iterations, force evaluations = 100 100

MPI task timing breakdown:
Section |  min time  |  avg time  |  max time  |%varavg| %total
---------------------------------------------------------------
Pair    | 18.711     | 18.711     | 18.711     |   0.0 | 99.86
Neigh   | 0          | 0          | 0          |   0.0 |  0.00
Comm    | 0.0010054  | 0.0010054  | 0.0010054  |   0.0 |  0.01
Output  | 0.023886   | 0.023886   | 0.023886   |   0.0 |  0.13
Modify  | 0.00021682 | 0.00021682 | 0.00021682 |   0.0 |  0.00
Other   |            | 0.001162   |            |       |  0.01

Nlocal:            320 ave         320 max         320 min
Histogram: 1 0 0 0 0 0 0 0 0 0
Nghost:           1592 ave        1592 max        1592 min
Histogram: 1 0 0 0 0 0 0 0 0 0
Neighs:              0 ave           0 max           0 min
Histogram: 1 0 0 0 0 0 0 0 0 0
FullNghs:        24960 ave       24960 max       24960 min
Histogram: 1 0 0 0 0 0 0 0 0 0

Total # of neighbors = 24960
Ave neighs/atom = 78
Neighbor list builds = 0
Dangerous builds = 0

# Obtain new stress tensor

variable tmp equal pxx
variable pxx1 equal ${tmp}
variable pxx1 equal -77450.7416503418
variable tmp equal pyy
variable pyy1 equal ${tmp}
variable pyy1 equal -83151.5344868131
variable tmp equal pzz
variable pzz1 equal ${tmp}
variable pzz1 equal -82005.2561918919
variable tmp equal pxy
variable pxy1 equal ${tmp}
variable pxy1 equal -1945.71987025404
variable tmp equal pxz
variable pxz1 equal ${tmp}
variable pxz1 equal 793.514936938052
variable tmp equal pyz
variable pyz1 equal ${tmp}
variable pyz1 equal -715.975036878638

# Compute elastic constant from pressure tensor

variable C1neg equal ${d1}
variable C1neg equal 2063950.85985582
variable C2neg equal ${d2}
variable C2neg equal 2479173.47335499
variable C3neg equal ${d3}
variable C3neg equal 2354420.48440901
variable C4neg equal ${d4}
variable C4neg equal -122134.802967577
variable C5neg equal ${d5}
variable C5neg equal -32814.3512303348
variable C6neg equal ${d6}
variable C6neg equal -179386.718643197

# Reset box and simulation parameters

clear
package omp 8
WARNING: OpenMP support not enabled during compilation; using 1 thread only. (../fix_omp.cpp:116)
box tilt large

The 'box' command has been removed and will be ignored

read_restart restart.equil
Reading restart file ...
  restart file = 2 Aug 2023, LAMMPS = 2 Aug 2023
  restoring atom style atomic from restart
  triclinic box = (-9.0309716 -7.218486 -7.2198991) to (9.0309716 7.218486 7.2198991) with tilt (0 0 0)
  1 by 1 by 1 MPI processor grid
  pair style m3gnet stores no restart info
  320 atoms
  read_restart CPU = 0.003 seconds
include potential.mod
# NOTE: This script can be modified for different pair styles
# See in.elastic for more info.

variable elem string "Co Ni Cr Fe Mn"

#-------------------- Force field --------------------------------------------------------
pair_style      m3gnet /mnt/d/lammps/potentials/M3GNET
#pair_style      m3gnet/d3 /mnt/d/lammps/potentials/M3GNET

#pair_coeff      * *  MP-2021.2.8-EFS ${elem} # M3GNet <https://github.com/materialsvirtuallab/m3gnet> will be called
pair_coeff      * *  M3GNet-MP-2021.2.8-PES ${elem} # MatGL <https://github.com/materialsvirtuallab/matgl> will be called
pair_coeff      * *  M3GNet-MP-2021.2.8-PES Co Ni Cr Fe Mn 

# Setup neighbor style
neighbor 1.0 nsq
neigh_modify once no every 1 delay 0 check yes

# Setup minimization style
min_style	     cg
min_modify	     dmax ${dmax} line quadratic
min_modify	     dmax 0.01 line quadratic

# Setup output
thermo		1
thermo_style custom step temp pe press pxx pyy pzz pxy pxz pyz lx ly lz vol
thermo_modify norm no

# Positive deformation

variable delta equal ${up}*${len0}
variable delta equal 1e-06*${len0}
variable delta equal 1e-06*18.0619431490031
variable deltaxy equal ${up}*xy
variable deltaxy equal 1e-06*xy
variable deltaxz equal ${up}*xz
variable deltaxz equal 1e-06*xz
variable deltayz equal ${up}*yz
variable deltayz equal 1e-06*yz
if "${dir} == 1" then    "change_box all x delta 0 ${delta} xy delta ${deltaxy} xz delta ${deltaxz} remap units box"
change_box all x delta 0 ${delta} xy delta ${deltaxy} xz delta ${deltaxz} remap units box
change_box all x delta 0 1.80619431490031e-05 xy delta ${deltaxy} xz delta ${deltaxz} remap units box
change_box all x delta 0 1.80619431490031e-05 xy delta 0 xz delta ${deltaxz} remap units box
change_box all x delta 0 1.80619431490031e-05 xy delta 0 xz delta 0 remap units box
Changing box ...
  triclinic box = (-9.0309716 -7.218486 -7.2198991) to (9.0309896 7.218486 7.2198991) with tilt (0 0 0)
  triclinic box = (-9.0309716 -7.218486 -7.2198991) to (9.0309896 7.218486 7.2198991) with tilt (0 0 0)
  triclinic box = (-9.0309716 -7.218486 -7.2198991) to (9.0309896 7.218486 7.2198991) with tilt (0 0 0)
if "${dir} == 2" then    "change_box all y delta 0 ${delta} yz delta ${deltayz} remap units box"
if "${dir} == 3" then    "change_box all z delta 0 ${delta} remap units box"
if "${dir} == 4" then    "change_box all yz delta ${delta} remap units box"
if "${dir} == 5" then    "change_box all xz delta ${delta} remap units box"
if "${dir} == 6" then    "change_box all xy delta ${delta} remap units box"

# Relax atoms positions

minimize ${etol} ${ftol} ${maxiter} ${maxeval}
minimize 0 ${ftol} ${maxiter} ${maxeval}
minimize 0 1e-10 ${maxiter} ${maxeval}
minimize 0 1e-10 100 ${maxeval}
minimize 0 1e-10 100 1000
No /omp style for force computation currently active
Neighbor list info ...
  update: every = 1 steps, delay = 0 steps, check = yes
  max neighbors/atom: 2000, page size: 100000
  master list distance cutoff = 6
  ghost atom cutoff = 6
  1 neighbor lists, perpetual/occasional/extra = 1 0 0
  (1) pair m3gnet, perpetual
      attributes: full, newton on, omp
      pair build: full/nsq/omp
      stencil: none
      bin: none
Per MPI rank memory allocation (min/avg/max) = 4.226 | 4.226 | 4.226 Mbytes
   Step          Temp          PotEng         Press           Pxx            Pyy            Pzz            Pxy            Pxz            Pyz             Lx             Ly             Lz           Volume    
       100   0             -2544.3298     -103862.41     -98091.452     -107944.81     -105550.97     -151.97354      1121.6983      505.37743      18.061961      14.436972      14.439798      3765.3222    
       101   0             -2544.5864     -103625.45     -97934.42      -107549.37     -105392.54     -184.74831      1123.9526      488.70321      18.061961      14.436972      14.439798      3765.3222    
       102   0             -2544.8267     -103328.33     -97706.415     -107098.08     -105180.48     -221.81742      1134.934       465.81198      18.061961      14.436972      14.439798      3765.3222    
       103   0             -2545.0535     -102973.95     -97407.315     -106594.53     -104920.02     -262.81483      1155.9064      438.04348      18.061961      14.436972      14.439798      3765.3222    
       104   0             -2545.2695     -102564.33     -97036.259     -106043.53     -104613.19     -307.40249      1187.6279      406.7972       18.061961      14.436972      14.439798      3765.3222    
       105   0             -2545.4756     -102099.53     -96590.874     -105448.16     -104259.56     -355.2783       1229.9991      373.36425      18.061961      14.436972      14.439798      3765.3222    
       106   0             -2545.6736     -101577.63     -96068.013     -104809.37     -103855.52     -405.84367      1282.4888      339.02538      18.061961      14.436972      14.439798      3765.3222    
       107   0             -2545.8633     -100995        -95463.917     -104126.22     -103394.85     -457.99349      1343.1956      305.01063      18.061961      14.436972      14.439798      3765.3222    
       108   0             -2546.0461     -100347.67     -94775.984     -103396.26     -102870.77     -509.77733      1408.0994      272.38162      18.061961      14.436972      14.439798      3765.3222    
       109   0             -2546.2166     -99651.549     -94024.375     -102636.54     -102293.73     -557.4657       1468.6676      242.489        18.061961      14.436972      14.439798      3765.3222    
       110   0             -2546.377      -98884.327     -93185.189     -101820.44     -101647.35     -605.10545      1509.4813      205.33473      18.061961      14.436972      14.439798      3765.3222    
       111   0             -2546.532      -98025.871     -92245.4       -100930.22     -100902        -624.29442      1525.3218      202.92515      18.061961      14.436972      14.439798      3765.3222    
       112   0             -2546.6748     -97167.787     -91300.09      -100050.22     -100153.05     -664.91986      1533.2324      194.8002       18.061961      14.436972      14.439798      3765.3222    
       113   0             -2546.8096     -96274.343     -90331.462     -99150.088     -99341.48      -702.97512      1564.911       175.68354      18.061961      14.436972      14.439798      3765.3222    
       114   0             -2546.9321     -95441.887     -89412.539     -98309.49      -98603.632     -742.56832      1590.8057      152.86595      18.061961      14.436972      14.439798      3765.3222    
       115   0             -2547.0474     -94598.483     -88496.078     -97450.821     -97848.551     -768.70279      1617.1424      119.69844      18.061961      14.436972      14.439798      3765.3222    
       116   0             -2547.1636     -93675.018     -87534.459     -96493.342     -96997.254     -769.53919      1644.2542      75.882803      18.061961      14.436972      14.439798      3765.3222    
       117   0             -2547.2634     -92848.717     -86661.208     -95671.074     -96213.868     -801.61677      1624.3135      53.555603      18.061961      14.436972      14.439798      3765.3222    
       118   0             -2547.3462     -92168.168     -85952.504     -95004.227     -95547.774     -829.39276      1601.083       42.023581      18.061961      14.436972      14.439798      3765.3222    
       119   0             -2547.4189     -91546.446     -85326.093     -94372.065     -94941.18      -847.04527      1581.6287      36.736964      18.061961      14.436972      14.439798      3765.3222    
       120   0             -2547.4863     -90990.699     -84757.35      -93812.687     -94402.058     -880.6754       1564.3482      25.88223       18.061961      14.436972      14.439798      3765.3222    
       121   0             -2547.5542     -90410.21      -84174.856     -93256.409     -93799.365     -903.04129      1558.868       20.378477      18.061961      14.436972      14.439798      3765.3222    
       122   0             -2547.6162     -89898.325     -83685.039     -92750.58      -93259.356     -920.05298      1540.5664      20.816299      18.061961      14.436972      14.439798      3765.3222    
       123   0             -2547.6731     -89377.994     -83204.902     -92225.869     -92703.211     -965.96554      1523.1523      12.204731      18.061961      14.436972      14.439798      3765.3222    
       124   0             -2547.7263     -88941.501     -82806.152     -91786.75      -92231.6       -983.83963      1512.156      -2.0927958      18.061961      14.436972      14.439798      3765.3222    
       125   0             -2547.7764     -88505.827     -82429.174     -91337.836     -91750.472     -1002.0601      1489.4864     -62.88317       18.061961      14.436972      14.439798      3765.3222    
       126   0             -2547.825      -88111.2       -82060.808     -90967.181     -91305.611     -1009.5807      1472.5019     -62.547615      18.061961      14.436972      14.439798      3765.3222    
       127   0             -2547.8735     -87689.447     -81676.181     -90543.845     -90848.315     -1019.8896      1429.9463     -84.587767      18.061961      14.436972      14.439798      3765.3222    
       128   0             -2547.9197     -87311.303     -81344.16      -90156.072     -90433.677     -1022.9919      1411.5812     -109.93706      18.061961      14.436972      14.439798      3765.3222    
       129   0             -2547.9641     -86957.696     -81038.898     -89801.505     -90032.685     -1056.1223      1397.0027     -155.53514      18.061961      14.436972      14.439798      3765.3222    
       130   0             -2548.0061     -86622.696     -80778.03      -89472.211     -89617.846     -1054.936       1396.6528     -199.72893      18.061961      14.436972      14.439798      3765.3222    
       131   0             -2548.0457     -86288.468     -80503.219     -89150.47      -89211.715     -1052.4975      1401.5896     -235.72534      18.061961      14.436972      14.439798      3765.3222    
       132   0             -2548.0845     -85984.653     -80245.47      -88859.113     -88849.376     -1082.4367      1418.379      -269.83393      18.061961      14.436972      14.439798      3765.3222    
       133   0             -2548.1221     -85676.289     -80006.87      -88559.134     -88462.861     -1085.9075      1432.2091     -340.15284      18.061961      14.436972      14.439798      3765.3222    
       134   0             -2548.1577     -85382.118     -79761.537     -88263.553     -88121.264     -1128.1931      1447.4756     -361.70797      18.061961      14.436972      14.439798      3765.3222    
       135   0             -2548.1919     -85120.603     -79575.261     -87994.683     -87791.865     -1151.8527      1431.5011     -430.74593      18.061961      14.436972      14.439798      3765.3222    
       136   0             -2548.2253     -84840.473     -79330.133     -87732.28      -87459.004     -1157.6545      1465.6024     -455.56229      18.061961      14.436972      14.439798      3765.3222    
       137   0             -2548.26       -84577.371     -79152.268     -87430.289     -87149.556     -1188.0689      1469.0325     -484.35353      18.061961      14.436972      14.439798      3765.3222    
       138   0             -2548.2932     -84274.685     -78908.805     -87132.667     -86782.582     -1211.1031      1499.7077     -548.90826      18.061961      14.436972      14.439798      3765.3222    
       139   0             -2548.323      -84052.356     -78749.956     -86905.397     -86501.716     -1223.199       1512.4464     -576.94539      18.061961      14.436972      14.439798      3765.3222    
       140   0             -2548.3508     -83823.336     -78570.403     -86680.473     -86219.133     -1230.5524      1527.5145     -597.97569      18.061961      14.436972      14.439798      3765.3222    
       141   0             -2548.3774     -83636.549     -78467.559     -86451.4       -85990.689     -1237.6966      1472.5918     -642.58325      18.061961      14.436972      14.439798      3765.3222    
       142   0             -2548.4033     -83403.163     -78270.959     -86241.897     -85696.634     -1244.512       1476.2189     -650.30309      18.061961      14.436972      14.439798      3765.3222    
       143   0             -2548.4268     -83211.885     -78121.442     -86048.272     -85465.94      -1270.3723      1465.5422     -713.03578      18.061961      14.436972      14.439798      3765.3222    
       144   0             -2548.4468     -83019.633     -77991.322     -85870.574     -85197.004     -1280.4568      1444.6427     -735.00896      18.061961      14.436972      14.439798      3765.3222    
       145   0             -2548.4653     -82868.675     -77875.351     -85716.193     -85014.48      -1293.5408      1450.5239     -773.0818       18.061961      14.436972      14.439798      3765.3222    
       146   0             -2548.4817     -82702.478     -77756.933     -85554.183     -84796.317     -1323.5613      1448.3159     -798.54982      18.061961      14.436972      14.439798      3765.3222    
       147   0             -2548.4973     -82560.05      -77686.19      -85380.195     -84613.765     -1381.9844      1446.452      -828.48833      18.061961      14.436972      14.439798      3765.3222    
       148   0             -2548.5125     -82493.448     -77660.259     -85314.43      -84505.657     -1383.1202      1421.7253     -821.52144      18.061961      14.436972      14.439798      3765.3222    
       149   0             -2548.5276     -82359.584     -77572.33      -85165.828     -84340.595     -1421.4883      1401.8631     -841.7187       18.061961      14.436972      14.439798      3765.3222    
       150   0             -2548.5422     -82254.489     -77527.622     -85044.549     -84191.297     -1454.1474      1374.2374     -856.09318      18.061961      14.436972      14.439798      3765.3222    
       151   0             -2548.5566     -82146.422     -77461.265     -84945.262     -84032.739     -1491.8346      1370.346      -871.72263      18.061961      14.436972      14.439798      3765.3222    
       152   0             -2548.5725     -82020.416     -77400.631     -84803.069     -83857.549     -1516.961       1356.4678     -885.8645       18.061961      14.436972      14.439798      3765.3222    
       153   0             -2548.5881     -81938.971     -77376.05      -84703.744     -83737.119     -1580.7002      1344.3064     -900.58208      18.061961      14.436972      14.439798      3765.3222    
       154   0             -2548.6016     -81826.563     -77319.721     -84586.681     -83573.287     -1604.7538      1337.9649     -902.80876      18.061961      14.436972      14.439798      3765.3222    
       155   0             -2548.6135     -81773.839     -77348.87      -84513.61      -83459.037     -1624.9284      1329.7447     -895.25656      18.061961      14.436972      14.439798      3765.3222    
       156   0             -2548.6235     -81734.805     -77359.599     -84446.634     -83398.183     -1674.3422      1308.6877     -892.70838      18.061961      14.436972      14.439798      3765.3222    
       157   0             -2548.6335     -81701.575     -77368.33      -84396.661     -83339.733     -1679.8564      1317.3542     -873.54624      18.061961      14.436972      14.439798      3765.3222    
       158   0             -2548.6426     -81638.292     -77370.199     -84291.728     -83252.948     -1735.8719      1311.8656     -876.83708      18.061961      14.436972      14.439798      3765.3222    
       159   0             -2548.6509     -81625.371     -77385.672     -84270.995     -83219.446     -1734.3551      1318.5274     -866.05811      18.061961      14.436972      14.439798      3765.3222    
       160   0             -2548.6592     -81592.326     -77372.598     -84225.543     -83178.838     -1736.6417      1318.0262     -851.97107      18.061961      14.436972      14.439798      3765.3222    
       161   0             -2548.6675     -81519.378     -77341.684     -84141.916     -83074.535     -1778.6336      1319.2787     -866.8276       18.061961      14.436972      14.439798      3765.3222    
       162   0             -2548.6763     -81501.707     -77351.25      -84118.131     -83035.739     -1769.028       1266.9764     -835.07897      18.061961      14.436972      14.439798      3765.3222    
       163   0             -2548.6885     -81368.432     -77282.905     -83976.739     -82845.653     -1795.5353      1232.7205     -837.14389      18.061961      14.436972      14.439798      3765.3222    
       164   0             -2548.7012     -81313.075     -77251.824     -83887.628     -82799.772     -1824.8236      1153.9201     -824.03557      18.061961      14.436972      14.439798      3765.3222    
       165   0             -2548.7126     -81228.282     -77194.065     -83802.064     -82688.716     -1841.7353      1138.9225     -785.33465      18.061961      14.436972      14.439798      3765.3222    
       166   0             -2548.7229     -81159.037     -77171.315     -83693.889     -82611.907     -1868.4664      1096.9102     -756.5053       18.061961      14.436972      14.439798      3765.3222    
       167   0             -2548.7322     -81150.567     -77175.84      -83669.179     -82606.681     -1891.3159      1066.2176     -729.44278      18.061961      14.436972      14.439798      3765.3222    
       168   0             -2548.7415     -81094.853     -77125.906     -83598.293     -82560.361     -1896.5732      1020.6132     -721.46284      18.061961      14.436972      14.439798      3765.3222    
       169   0             -2548.7502     -81116.29      -77168.731     -83601.373     -82578.767     -1921.04        985.7066      -692.74055      18.061961      14.436972      14.439798      3765.3222    
       170   0             -2548.7593     -81095.602     -77134.026     -83576.558     -82576.221     -1922.5676      943.49958     -681.14909      18.061961      14.436972      14.439798      3765.3222    
       171   0             -2548.7683     -81123.718     -77179.331     -83596.595     -82595.228     -1948.6018      918.06509     -657.746        18.061961      14.436972      14.439798      3765.3222    
       172   0             -2548.7766     -81117.238     -77168.063     -83581.432     -82602.218     -1948.6989      887.05242     -653.34993      18.061961      14.436972      14.439798      3765.3222    
       173   0             -2548.7849     -81130.467     -77187.904     -83592.552     -82610.944     -1992.5742      862.76987     -665.53603      18.061961      14.436972      14.439798      3765.3222    
       174   0             -2548.793      -81110.994     -77161.931     -83558.105     -82612.947     -1995.1279      845.30951     -665.0454       18.061961      14.436972      14.439798      3765.3222    
       175   0             -2548.8015     -81155.323     -77209.867     -83611.32      -82644.781     -2027.5409      826.56094     -660.46591      18.061961      14.436972      14.439798      3765.3222    
       176   0             -2548.8113     -81134.521     -77185.21      -83588.937     -82629.417     -2028.0679      801.7488      -683.94686      18.061961      14.436972      14.439798      3765.3222    
       177   0             -2548.8213     -81166.218     -77249.993     -83605.417     -82643.245     -2046.0302      787.77233     -682.10977      18.061961      14.436972      14.439798      3765.3222    
       178   0             -2548.8323     -81111.32      -77233.91      -83513.587     -82586.463     -2042.7908      736.49274     -706.40872      18.061961      14.436972      14.439798      3765.3222    
       179   0             -2548.8428     -81180.721     -77369.222     -83542.207     -82630.733     -2089.2425      760.58389     -714.53573      18.061961      14.436972      14.439798      3765.3222    
       180   0             -2548.8538     -81123.297     -77336.806     -83471.111     -82561.973     -2104.4692      713.85095     -738.49449      18.061961      14.436972      14.439798      3765.3222    
       181   0             -2548.8625     -81098.682     -77380.971     -83405.431     -82509.645     -2100.4118      715.3845      -734.74551      18.061961      14.436972      14.439798      3765.3222    
[...]
       161   0             -2548.6677     -81518.305     -77340.487     -84140.809     -83073.619     -1778.7215      1319.1177     -867.18597      18.061943      14.436972      14.439798      3765.3184    
       162   0             -2548.6765     -81500.674     -77350.239     -84116.987     -83034.795     -1769.1468      1266.7105     -835.42221      18.061943      14.436972      14.439798      3765.3184    
       163   0             -2548.6887     -81367.398     -77281.889     -83975.623     -82844.68      -1795.6355      1232.4541     -837.32941      18.061943      14.436972      14.439798      3765.3184    
       164   0             -2548.7014     -81309.228     -77246.264     -83886.474     -82794.946     -1824.8916      1158.1274     -824.2532       18.061943      14.436972      14.439798      3765.3184    
       165   0             -2548.7129     -81230.871     -77198.171     -83801.778     -82692.665     -1841.5032      1133.3899     -785.89158      18.061943      14.436972      14.439798      3765.3184    
       166   0             -2548.7229     -81157.624     -77169.584     -83692.668     -82610.62      -1868.6588      1097.2658     -756.62242      18.061943      14.436972      14.439798      3765.3184    
       167   0             -2548.7324     -81149.453     -77174.357     -83668.13      -82605.871     -1891.3651      1065.9286     -729.55662      18.061943      14.436972      14.439798      3765.3184    
       168   0             -2548.7415     -81094.386     -77125.238     -83597.883     -82560.037     -1896.7477      1020.6579     -721.72666      18.061943      14.436972      14.439798      3765.3184    
       169   0             -2548.7505     -81108.214     -77167.629     -83590.568     -82566.446     -1932.1743      985.52309     -692.9707       18.061943      14.436972      14.439798      3765.3184    
       170   0             -2548.7595     -81095.775     -77133.335     -83576.988     -82577.003     -1921.4399      942.65014     -681.69008      18.061943      14.436972      14.439798      3765.3184    
       171   0             -2548.7683     -81123.586     -77178.754     -83596.404     -82595.6       -1947.9205      917.69584     -658.11063      18.061943      14.436972      14.439798      3765.3184    
       172   0             -2548.7769     -81117.088     -77167.663     -83581.212     -82602.39      -1948.3481      886.98678     -653.62285      18.061943      14.436972      14.439798      3765.3184    
       173   0             -2548.7852     -81130.066     -77187.323     -83592.246     -82610.63      -1992.427       862.87075     -665.78152      18.061943      14.436972      14.439798      3765.3184    
       174   0             -2548.7932     -81110.533     -77161.302     -83557.866     -82612.432     -1995.1209      845.55634     -665.31228      18.061943      14.436972      14.439798      3765.3184    
       175   0             -2548.8018     -81146.695     -77196.087     -83599.924     -82644.075     -2027.9796      827.28633     -672.79252      18.061943      14.436972      14.439798      3765.3184    
       176   0             -2548.8115     -81140.619     -77191.018     -83594.65      -82636.188     -2028.8306      804.00759     -684.60526      18.061943      14.436972      14.439798      3765.3184    
       177   0             -2548.8215     -81161.057     -77244.162     -83600.448     -82638.563     -2045.5605      784.60747     -682.40824      18.061943      14.436972      14.439798      3765.3184    
       178   0             -2548.8325     -81119.045     -77245.23      -83518.127     -82593.778     -2043.2848      742.06354     -707.48056      18.061943      14.436972      14.439798      3765.3184    
       179   0             -2548.8428     -81188.237     -77379.068     -83546.699     -82638.944     -2091.3032      763.75017     -714.71798      18.061943      14.436972      14.439798      3765.3184    
       180   0             -2548.8542     -81122.419     -77335.891     -83469.556     -82561.811     -2104.7145      712.44935     -738.33035      18.061943      14.436972      14.439798      3765.3184    
       181   0             -2548.8628     -81104.438     -77391.943     -83412.593     -82508.777     -2100.4209      716.45769     -726.67556      18.061943      14.436972      14.439798      3765.3184    
       182   0             -2548.8691     -81082.883     -77414.731     -83374.074     -82459.844     -2086.4737      700.78122     -732.80098      18.061943      14.436972      14.439798      3765.3184    
       183   0             -2548.8755     -81070.121     -77470.068     -83335.718     -82404.579     -2048.7779      719.45394     -724.61436      18.061943      14.436972      14.439798      3765.3184    
       184   0             -2548.8813     -81004.85      -77431.153     -83263.229     -82320.169     -2036.7248      704.24872     -725.86948      18.061943      14.436972      14.439798      3765.3184    
       185   0             -2548.8875     -81007.527     -77482.098     -83245.92      -82294.563     -1983.0531      742.4573      -742.88281      18.061943      14.436972      14.439798      3765.3184    
       186   0             -2548.8938     -80956.588     -77472.304     -83177.856     -82219.604     -1990.0814      723.16209     -739.86875      18.061943      14.436972      14.439798      3765.3184    
       187   0             -2548.8997     -80978.066     -77526.821     -83189.472     -82217.906     -1926.4256      741.54722     -732.15442      18.061943      14.436972      14.439798      3765.3184    
       188   0             -2548.9048     -80904.438     -77469.291     -83118.127     -82125.896     -1963.4059      729.91857     -739.56179      18.061943      14.436972      14.439798      3765.3184    
       189   0             -2548.9102     -80930.608     -77508.234     -83143.896     -82139.696     -1906.1722      763.56465     -711.67434      18.061943      14.436972      14.439798      3765.3184    
       190   0             -2548.9155     -80877.549     -77450.441     -83099.073     -82083.133     -1928.8398      721.58093     -720.36417      18.061943      14.436972      14.439798      3765.3184    
       191   0             -2548.9207     -80877.373     -77475.203     -83087.39      -82069.524     -1907.6949      771.19844     -711.47258      18.061943      14.436972      14.439798      3765.3184    
       192   0             -2548.9253     -80833.658     -77422.394     -83062.051     -82016.529     -1935.9106      732.02537     -712.10327      18.061943      14.436972      14.439798      3765.3184    
       193   0             -2548.9297     -80837.948     -77434.482     -83074.42      -82004.941     -1915.7207      756.48928     -720.40448      18.061943      14.436972      14.439798      3765.3184    
       194   0             -2548.9336     -80812.029     -77389.845     -83077.348     -81968.893     -1933.4844      734.46857     -722.66536      18.061943      14.436972      14.439798      3765.3184    
       195   0             -2548.9375     -80828.263     -77425.569     -83063.739     -81995.481     -1927.4218      787.68173     -724.04625      18.061943      14.436972      14.439798      3765.3184    
       196   0             -2548.9417     -80838.164     -77426.633     -83075.622     -82012.237     -1932.067       778.40836     -712.36128      18.061943      14.436972      14.439798      3765.3184    
       197   0             -2548.9456     -80853.154     -77417.835     -83112.825     -82028.802     -1952.5191      778.33848     -721.06438      18.061943      14.436972      14.439798      3765.3184    
       198   0             -2548.9495     -80833.377     -77406.329     -83097.576     -81996.225     -1935.6869      794.63372     -711.97065      18.061943      14.436972      14.439798      3765.3184    
       199   0             -2548.9536     -80879.654     -77455.505     -83142.875     -82040.58      -1954.598       790.44202     -719.97227      18.061943      14.436972      14.439798      3765.3184    
       200   0             -2548.9573     -80869.986     -77451.462     -83152.364     -82006.134     -1945.7598      793.57052     -716.46767      18.061943      14.436972      14.439798      3765.3184    
Loop time of 20.3126 on 1 procs for 100 steps with 320 atoms

888.6% CPU use with 1 MPI tasks x no OpenMP threads

Minimization stats:
  Stopping criterion = max iterations
  Energy initial, next-to-last, final = 
       -2544.330078125  -2548.95361328125  -2548.95727539062
  Force two-norm initial, final = 3.6856413 0.17423875
  Force max component initial, final = 0.51795262 0.070590205
  Final line search alpha, max atom move = 0.12306676 0.0086873079
  Iterations, force evaluations = 100 100

MPI task timing breakdown:
Section |  min time  |  avg time  |  max time  |%varavg| %total
---------------------------------------------------------------
Pair    | 20.286     | 20.286     | 20.286     |   0.0 | 99.87
Neigh   | 0          | 0          | 0          |   0.0 |  0.00
Comm    | 0.001071   | 0.001071   | 0.001071   |   0.0 |  0.01
Output  | 0.024415   | 0.024415   | 0.024415   |   0.0 |  0.12
Modify  | 0.00024788 | 0.00024788 | 0.00024788 |   0.0 |  0.00
Other   |            | 0.001242   |            |       |  0.01

Nlocal:            320 ave         320 max         320 min
Histogram: 1 0 0 0 0 0 0 0 0 0
Nghost:           1592 ave        1592 max        1592 min
Histogram: 1 0 0 0 0 0 0 0 0 0
Neighs:              0 ave           0 max           0 min
Histogram: 1 0 0 0 0 0 0 0 0 0
FullNghs:        24960 ave       24960 max       24960 min
Histogram: 1 0 0 0 0 0 0 0 0 0

Total # of neighbors = 24960
Ave neighs/atom = 78
Neighbor list builds = 0
Dangerous builds = 0

# Obtain new stress tensor

variable tmp equal pe
variable e1 equal ${tmp}
variable e1 equal -2548.95727539062
variable tmp equal press
variable p1 equal ${tmp}
variable p1 equal -80869.9864766664
variable tmp equal pxx
variable pxx1 equal ${tmp}
variable pxx1 equal -77451.4616743965
variable tmp equal pyy
variable pyy1 equal ${tmp}
variable pyy1 equal -83152.3641834058
variable tmp equal pzz
variable pzz1 equal ${tmp}
variable pzz1 equal -82006.1335721968
variable tmp equal pxy
variable pxy1 equal ${tmp}
variable pxy1 equal -1945.75980536303
variable tmp equal pxz
variable pxz1 equal ${tmp}
variable pxz1 equal 793.570518265115
variable tmp equal pyz
variable pyz1 equal ${tmp}
variable pyz1 equal -716.467669230564

# Compute elastic constant from pressure tensor

variable C1pos equal ${d1}
variable C1pos equal -2063878.85745035
variable C2pos equal ${d2}
variable C2pos equal -2479090.50369572
variable C3pos equal ${d3}
variable C3pos equal -2354332.74637852
variable C4pos equal ${d4}
variable C4pos equal 122184.066202769
variable C5pos equal ${d5}
variable C5pos equal 32808.7930976285
variable C6pos equal ${d6}
variable C6pos equal 179390.712154096

# Combine positive and negative

variable C1${dir} equal 0.5*(${C1neg}+${C1pos})
variable C16 equal 0.5*(${C1neg}+${C1pos})
variable C16 equal 0.5*(2064904.05726319+${C1pos})
variable C16 equal 0.5*(2064904.05726319+-2063878.85745035)
variable C2${dir} equal 0.5*(${C2neg}+${C2pos})
variable C26 equal 0.5*(${C2neg}+${C2pos})
variable C26 equal 0.5*(2476918.03376674+${C2pos})
variable C26 equal 0.5*(2476918.03376674+-2479090.50369572)
variable C3${dir} equal 0.5*(${C3neg}+${C3pos})
variable C36 equal 0.5*(${C3neg}+${C3pos})
variable C36 equal 0.5*(2353480.16160393+${C3pos})
variable C36 equal 0.5*(2353480.16160393+-2354332.74637852)
variable C4${dir} equal 0.5*(${C4neg}+${C4pos})
variable C46 equal 0.5*(${C4neg}+${C4pos})
variable C46 equal 0.5*(-122218.547487172+${C4pos})
variable C46 equal 0.5*(-122218.547487172+122184.066202769)
variable C5${dir} equal 0.5*(${C5neg}+${C5pos})
variable C56 equal 0.5*(${C5neg}+${C5pos})
variable C56 equal 0.5*(-34081.8290047577+${C5pos})
variable C56 equal 0.5*(-34081.8290047577+32808.7930976285)
variable C6${dir} equal 0.5*(${C6neg}+${C6pos})
variable C66 equal 0.5*(${C6neg}+${C6pos})
variable C66 equal 0.5*(-181088.58013483+${C6pos})
variable C66 equal 0.5*(-181088.58013483+179390.712154096)

# Delete dir to make sure it is not reused

variable dir delete

# Output final values

variable C11all equal ${C11}
variable C11all equal -430.345502829994
variable C22all equal ${C22}
variable C22all equal 204.563125445042
variable C33all equal ${C33}
variable C33all equal -174.045549619943

variable C12all equal 0.5*(${C12}+${C21})
variable C12all equal 0.5*(227.45130731503+${C21})
variable C12all equal 0.5*(227.45130731503+1173.01932073501)
variable C13all equal 0.5*(${C13}+${C31})
variable C13all equal 0.5*(-417.232481969986+${C31})
variable C13all equal 0.5*(-417.232481969986+516.891440520063)
variable C23all equal 0.5*(${C23}+${C32})
variable C23all equal 0.5*(688.075967410114+${C32})
variable C23all equal 0.5*(688.075967410114+226.020795949968)

variable C44all equal ${C44}
variable C44all equal -285.286434836504
variable C55all equal ${C55}
variable C55all equal 103.633842999199
variable C66all equal ${C66}
variable C66all equal -848.933990367004

variable C14all equal 0.5*(${C14}+${C41})
variable C14all equal 0.5*(266.313532774919+${C41})
variable C14all equal 0.5*(266.313532774919+58.2896129050059)
variable C15all equal 0.5*(${C15}+${C51})
variable C15all equal 0.5*(51.4984091999941+${C51})
variable C15all equal 0.5*(51.4984091999941+635.504674679749)
variable C16all equal 0.5*(${C16}+${C61})
variable C16all equal 0.5*(512.599906419986+${C61})
variable C16all equal 0.5*(512.599906419986+851.236219597995)

variable C24all equal 0.5*(${C24}+${C42})
variable C24all equal 0.5*(248.432140690042+${C42})
variable C24all equal 0.5*(248.432140690042+28.5133697945057)
variable C25all equal 0.5*(${C25}+${C52})
variable C25all equal 0.5*(515.460929155117+${C52})
variable C25all equal 0.5*(515.460929155117+26.1813382436012)
variable C26all equal 0.5*(${C26}+${C62})
variable C26all equal 0.5*(-1086.23496448994+${C62})
variable C26all equal 0.5*(-1086.23496448994+7.02589697299118)

variable C34all equal 0.5*(${C34}+${C43})
variable C34all equal 0.5*(-1.43051137006842+${C43})
variable C34all equal 0.5*(-1.43051137006842+78.4732342200004)
variable C35all equal 0.5*(${C35}+${C53})
variable C35all equal 0.5*(717.163031864911+${C53})
variable C35all equal 0.5*(717.163031864911+603.415026468349)
variable C36all equal 0.5*(${C36}+${C63})
variable C36all equal 0.5*(-426.292387295049+${C63})
variable C36all equal 0.5*(-426.292387295049+195.786342164502)

variable C45all equal 0.5*(${C45}+${C54})
variable C45all equal 0.5*(3.95625799900154+${C54})
variable C45all equal 0.5*(3.95625799900154+0.819563803899655)
variable C46all equal 0.5*(${C46}+${C64})
variable C46all equal 0.5*(-17.2406422015047+${C64})
variable C46all equal 0.5*(-17.2406422015047+76.830381322492)
variable C56all equal 0.5*(${C56}+${C65})
variable C56all equal 0.5*(-636.517953564602+${C65})
variable C56all equal 0.5*(-636.517953564602+653.460572564509)

# Average moduli for cubic crystals

variable C11cubic equal (${C11all}+${C22all}+${C33all})/3.0
variable C11cubic equal (-430.345502829994+${C22all}+${C33all})/3.0
variable C11cubic equal (-430.345502829994+204.563125445042+${C33all})/3.0
variable C11cubic equal (-430.345502829994+204.563125445042+-174.045549619943)/3.0
variable C12cubic equal (${C12all}+${C13all}+${C23all})/3.0
variable C12cubic equal (700.23531402502+${C13all}+${C23all})/3.0
variable C12cubic equal (700.23531402502+49.8294792750385+${C23all})/3.0
variable C12cubic equal (700.23531402502+49.8294792750385+457.048381680041)/3.0
variable C44cubic equal (${C44all}+${C55all}+${C66all})/3.0
variable C44cubic equal (-285.286434836504+${C55all}+${C66all})/3.0
variable C44cubic equal (-285.286434836504+103.633842999199+${C66all})/3.0
variable C44cubic equal (-285.286434836504+103.633842999199+-848.933990367004)/3.0

variable bulkmodulus equal (${C11cubic}+2*${C12cubic})/3.0
variable bulkmodulus equal (-133.275975668298+2*${C12cubic})/3.0
variable bulkmodulus equal (-133.275975668298+2*402.3710583267)/3.0
variable shearmodulus1 equal ${C44cubic}
variable shearmodulus1 equal -343.52886073477
variable shearmodulus2 equal (${C11cubic}-${C12cubic})/2.0
variable shearmodulus2 equal (-133.275975668298-${C12cubic})/2.0
variable shearmodulus2 equal (-133.275975668298-402.3710583267)/2.0
variable poissonratio equal 1.0/(1.0+${C11cubic}/${C12cubic})
variable poissonratio equal 1.0/(1.0+-133.275975668298/${C12cubic})
variable poissonratio equal 1.0/(1.0+-133.275975668298/402.3710583267)

# For Stillinger-Weber silicon, the analytical results
# are known to be (E. R. Cowley, 1988):
#               C11 = 151.4 GPa
#               C12 = 76.4 GPa
#               C44 = 56.4 GPa

print "========================================="
=========================================
print "Components of the Elastic Constant Tensor"
Components of the Elastic Constant Tensor
print "========================================="
=========================================

print "Elastic Constant C11all = ${C11all} ${cunits}"
Elastic Constant C11all = -430.345502829994 GPa
print "Elastic Constant C22all = ${C22all} ${cunits}"
Elastic Constant C22all = 204.563125445042 GPa
print "Elastic Constant C33all = ${C33all} ${cunits}"
Elastic Constant C33all = -174.045549619943 GPa

print "Elastic Constant C12all = ${C12all} ${cunits}"
Elastic Constant C12all = 700.23531402502 GPa
print "Elastic Constant C13all = ${C13all} ${cunits}"
Elastic Constant C13all = 49.8294792750385 GPa
print "Elastic Constant C23all = ${C23all} ${cunits}"
Elastic Constant C23all = 457.048381680041 GPa

print "Elastic Constant C44all = ${C44all} ${cunits}"
Elastic Constant C44all = -285.286434836504 GPa
print "Elastic Constant C55all = ${C55all} ${cunits}"
Elastic Constant C55all = 103.633842999199 GPa
print "Elastic Constant C66all = ${C66all} ${cunits}"
Elastic Constant C66all = -848.933990367004 GPa

print "Elastic Constant C14all = ${C14all} ${cunits}"
Elastic Constant C14all = 162.301572839962 GPa
print "Elastic Constant C15all = ${C15all} ${cunits}"
Elastic Constant C15all = 343.501541939872 GPa
print "Elastic Constant C16all = ${C16all} ${cunits}"
Elastic Constant C16all = 681.918063008991 GPa

print "Elastic Constant C24all = ${C24all} ${cunits}"
Elastic Constant C24all = 138.472755242274 GPa
print "Elastic Constant C25all = ${C25all} ${cunits}"
Elastic Constant C25all = 270.821133699359 GPa
print "Elastic Constant C26all = ${C26all} ${cunits}"
Elastic Constant C26all = -539.604533758474 GPa

print "Elastic Constant C34all = ${C34all} ${cunits}"
Elastic Constant C34all = 38.521361424966 GPa
print "Elastic Constant C35all = ${C35all} ${cunits}"
Elastic Constant C35all = 660.28902916663 GPa
print "Elastic Constant C36all = ${C36all} ${cunits}"
Elastic Constant C36all = -115.253022565274 GPa

print "Elastic Constant C45all = ${C45all} ${cunits}"
Elastic Constant C45all = 2.3879109014506 GPa
print "Elastic Constant C46all = ${C46all} ${cunits}"
Elastic Constant C46all = 29.7948695604937 GPa
print "Elastic Constant C56all = ${C56all} ${cunits}"
Elastic Constant C56all = 8.47130949995352 GPa

print "========================================="
=========================================
print "Average properties for a cubic crystal"
Average properties for a cubic crystal
print "========================================="
=========================================

print "Bulk Modulus = ${bulkmodulus} ${cunits}"
Bulk Modulus = 223.822046995034 GPa
print "Shear Modulus 1 = ${shearmodulus1} ${cunits}"
Shear Modulus 1 = -343.52886073477 GPa
print "Shear Modulus 2 = ${shearmodulus2} ${cunits}"
Shear Modulus 2 = -267.823516997499 GPa
print "Poisson Ratio = ${poissonratio}"
Poisson Ratio = 1.49527466036042
Total wall time: 0:04:23
