# LAMMPS data file written by OVITO Basic 3.8.4

308 atoms
4 atom types

0.0 13.04 xlo xhi
0.0 25.897 ylo yhi
0.0 10.4368722464 zlo zhi
1.5857339079e-15 -2.8689150757 8.3844923092e-16 xy xz yz

Masses

1 58.6934  # Ni
2 14.0067  # N
3 12.0107  # C
4 1.00794  # H

Atoms  # atomic

1 1 8.2523350278 12.3943042 4.9929996827
2 1 9.8732074344 25.3428042 0.2254364405
3 1 1.9187498965 13.5026958 5.4438725637
4 1 0.29787749 0.5541958 10.2114358059
5 2 9.8401486581 13.0987026 3.9889725726
6 2 8.2853938041 0.1502026 1.2294635506
7 2 0.3309362663 12.7982974 6.4478996739
8 2 1.8856911203 25.7467974 9.2074086958
9 2 8.6034850547 10.7032301 4.1851857708
10 2 9.5220574075 23.6517301 1.0332503524
11 2 1.5675998697 15.1937699 6.2516864756
12 2 0.6490275168 2.2452699 9.403621894
13 2 6.7125084824 11.705444 6.0074636651
14 2 8.5441189041 24.653944 9.6478447046
15 2 3.4585764419 14.191556 4.4294085814
16 2 1.6269660203 1.243056 0.7890275418
17 2 7.9875612935 14.1527105 5.8613474536
18 2 7.269066093 1.2042105 9.7939609161
19 2 2.1835236308 11.7442895 4.5755247928
20 2 2.9020188313 24.6927895 0.6429113304
21 2 10.0216530837 9.5767106 9.8419705284
22 2 5.2349743029 22.5252106 5.8133378413
23 2 0.1494318407 16.3202894 0.594901718
24 2 4.9361106215 3.3717894 4.6235344052
25 2 7.7050641527 14.6887784 1.0019397357
26 2 10.4204783094 1.7402784 4.2164963876
27 2 2.4660207716 11.2082216 9.4349325108
28 2 -0.2493933851 24.1567216 6.2203758589
29 3 10.2411029693 14.4220393 3.953487207
30 3 7.8844394928 1.4735393 1.2649489163
31 3 -0.070018045 11.4749607 6.4833850395
32 3 2.2866454315 24.4234607 9.1719233302
33 3 11.3009524582 14.6136771 3.005819207
34 3 6.824590004 1.6651771 2.2126169162
35 3 -1.1298675339 11.2833229 7.4310530395
36 3 3.3464949204 24.2318229 8.2242553302
37 3 11.5544560421 13.4327739 2.4631018502
38 3 6.57108642 0.4842739 2.7553342731
39 3 -1.3833711178 12.4642261 7.9737703963
40 3 3.5999985043 25.4127261 7.6815379734
41 3 10.6730496187 12.4719952 3.0747025638
42 3 7.4524928435 25.4204952 2.1437335594
43 3 -0.5019646944 13.4250048 7.3621696826
44 3 2.7185920809 0.4765048 8.293138687
45 3 10.5925964436 11.1253512 2.745941088
46 3 7.5329460186 24.0738512 2.4724950352
47 3 -0.4215115193 14.7716488 7.6909311584
48 3 2.6381389058 1.8231488 7.9643772113
49 3 9.706938025 10.2785193 3.4441678413
50 3 8.4186044371 23.2270193 1.7742682819
51 3 0.4641468993 15.6184807 6.9927044051
52 3 1.7524804872 2.6699807 8.6626039646
53 3 9.5538522225 8.9215165 3.0997510572
54 3 8.5716902396 21.8700165 2.118685066
55 3 0.6172327018 16.9754835 7.3371211893
56 3 1.5993946847 4.0269835 8.3181871804
57 3 8.3554710441 8.5278821 3.5694103083
58 3 9.770071418 21.4763821 1.6490258149
59 3 1.8156138802 17.3691179 6.8674619382
60 3 0.4010135063 4.4206179 8.7878464315
61 3 7.7720537341 9.6026076 4.2686807488
62 3 10.3534887281 22.5511076 0.9497553744
63 3 2.3990311903 16.2943924 6.1681914976
64 3 -0.1824038038 3.3458924 9.487116872
65 3 6.5825367637 9.5093784 5.0096986783
66 3 11.5430056985 22.4578784 0.2087374449
67 3 3.5885481607 16.3876216 5.4271735682
68 3 -1.3719207741 3.4391216 10.2281348015
69 3 6.2137293455 10.4313116 5.9291871232
70 3 9.042898041 23.3798116 9.7261212465
71 3 3.9573555788 15.4656884 4.5076851232
72 3 1.1281868833 2.5171884 0.710751
73 3 5.2482625596 10.2008283 6.9509569161
74 3 10.0083648269 23.1493283 8.7043514535
75 3 4.9228223647 15.6961717 3.4859153303
76 3 0.1627200974 2.7476717 1.7325207929
77 3 5.1676674194 11.3118096 7.6711011011
78 3 10.0889599671 24.2603096 7.9842072685
79 3 5.0034175049 14.5851904 2.7657711453
80 3 0.0821249572 1.6366904 2.4526649779
81 3 6.0247151919 12.2829471 7.0532382641
82 3 9.2319121946 25.2314471 8.6020701055
83 3 4.1463697325 13.6140529 3.3836339823
84 3 0.9391727297 0.6655529 1.8348021409
85 3 6.2678537729 13.5674383 7.5302033258
86 3 8.9887736136 0.6189383 8.1251050439
87 3 3.9032311514 12.3295617 2.9066689206
88 3 1.1823113107 25.2780617 2.3117672026
89 3 7.1247451114 14.4660642 6.9081657399
90 3 8.1318822751 1.5175642 8.7471426297
91 3 3.0463398129 11.4309358 3.5287065065
92 3 2.0392026493 24.3794358 1.6897296167
93 3 7.4126370415 15.7919906 7.3788686782
94 3 7.843990345 2.8434906 8.2764396914
95 3 2.7584478828 10.1050094 3.0580035682
96 3 2.3270945793 23.0535094 2.160432555
97 3 8.3637835023 16.3202894 6.5752295153
98 3 6.8928438842 3.3717894 9.0800788544
99 3 1.807301422 9.5767106 3.8616427312
100 3 3.2782410402 22.5252106 1.356793392
101 3 8.733608029 15.305127 5.6567847576
102 3 6.5230193575 2.356627 9.9985236121
103 3 1.4374768953 10.591873 4.7800874889
104 3 3.6480655668 23.540373 0.4383486344
105 3 9.7169388669 15.4423811 4.7028546342
106 3 8.4086035953 2.4938811 0.515581489
107 3 0.4541460574 10.4546189 5.7340176122
108 3 1.7624813291 23.4031189 9.9212907575
109 3 11.3906311255 10.591873 1.5884919559
110 3 6.7349113367 23.540373 3.6299441673
111 3 -1.2195462011 15.305127 8.8483802905
112 3 3.4361735877 2.356627 6.8069280791
113 3 -0.3805266478 10.0428566 1.7638314096
114 3 5.46606911 22.9913566 3.4546047136
115 3 10.5516115721 15.8541434 8.6730408368
116 3 4.7050158144 2.9056434 6.9822675329
117 3 0.3119094352 9.5508136 0.6679598238
118 3 4.773633027 22.4993136 4.5504762995
119 3 9.8591754892 16.3461864 9.7689124227
120 3 5.3974518973 3.3976864 5.886395947
121 3 8.8071089796 10.1050094 9.7062911892
122 3 6.4495184069 23.0535094 5.9490171805
123 3 1.3639759447 15.7919906 0.7305810573
124 3 3.7215665175 2.8434906 4.487855066
125 3 10.889179293 10.6281288 0.2817955507
126 3 7.2363631692 23.5766288 4.9366405726
127 3 -0.7180943686 15.2688712 10.1550766958
128 3 2.9347217551 2.3203712 5.5002316739
129 3 5.665305235 8.3440134 4.8218349779
130 3 12.4602372271 21.2925134 0.3966011454
131 3 4.5057796893 17.5529866 5.6150372686
132 3 -2.2891523028 4.6044866 10.0402711011
133 3 5.3901497275 7.4635154 5.8655222025
134 3 9.866477659 20.4120154 9.7897861672
135 3 4.7809351969 18.4334846 4.5713500439
136 3 0.3046072653 5.4849846 0.6470860793
137 3 4.534728029 6.3862002 5.6567847576
138 3 -2.3181006425 19.3347002 9.9985236121
139 3 5.6363568953 19.5107998 4.7800874889
140 3 12.4891855668 6.5622998 0.4383486344
141 3 3.9343800079 6.1816139 4.4252338325
142 3 1.1511624542 19.1301139 0.7932022907
143 3 6.2367049164 19.7153861 6.011638414
144 3 9.0199224701 6.7668861 9.6436699557
145 3 4.1951915155 7.0595222 3.3815466078
146 3 0.8903509467 20.0080222 1.8368895154
147 3 5.9758934089 18.8374778 7.0553256386
148 3 9.2807339777 5.8889778 8.5999827311
149 3 5.049309214 8.1394271 3.5902840528
150 3 0.0362332482 21.0879271 1.6281520704
151 3 5.1217757104 17.7575729 6.8465881937
152 3 10.1348516761 4.8090729 8.808720176
153 3 3.6063191547 6.8911917 2.1082481938
154 3 1.4792233075 19.8396917 3.1101879294
155 3 6.5647657696 19.0058083 8.3286240527
156 3 8.6918616169 6.0573083 7.326684317
157 3 3.1700130678 6.888602 0.9915028634
158 3 1.9155293944 19.837102 4.2269332598
159 3 7.0010718565 19.008398 9.445369383
160 3 8.25555553 6.059898 6.2099389866
161 3 5.7375021857 13.9558933 8.8713414095
162 3 9.5191252008 1.0073933 6.7839669602
163 3 4.4335827387 11.9411067 1.565530837
164 3 0.6519597235 24.8896067 3.6529052863
165 3 6.5968261027 14.036174 9.9672129954
166 3 8.6598012838 1.087674 5.6880953743
167 3 3.5742588216 11.860826 0.4696592511
168 3 1.5112836406 24.809326 4.7487768721
169 3 8.9837691995 14.398732 0.761891674
170 3 9.1417732627 1.450232 4.4565444492
171 3 1.1873157249 11.498268 9.6749805725
172 3 1.0293116616 24.446768 5.9803277972
173 3 4.0102073299 14.605908 10.3638141407
174 3 11.2464200566 1.657408 5.2914942289
175 3 6.1608775945 11.291092 0.0730581057
176 3 -1.0753351323 24.239592 5.1453780175
177 3 4.4022038842 14.24335 9.0800788544
178 3 10.8544235023 1.29485 6.5752295153
179 3 5.7688810402 11.65365 1.356793392
180 3 -0.683338578 24.60215 3.8616427312
181 3 10.274688923 16.7631281 4.4147969602
182 3 7.8508535392 3.8146281 0.803639163
183 3 -0.1036039987 9.1338719 6.0220752862
184 3 2.3202313852 22.0823719 9.6332330835
185 3 10.842439821 17.5788836 5.3854260792
186 3 4.4141875655 4.6303836 10.2698822905
187 3 -0.6713548966 8.3181164 5.0514461673
188 3 5.7568973588 21.2666164 0.1669899559
189 3 11.3703029335 18.8064014 5.0305724228
190 3 6.7552395286 5.8579014 0.1878637004
191 3 -1.1992180092 7.0905986 5.4062998237
192 3 3.4158453957 20.0390986 10.249008546
193 3 11.3434551481 19.1922667 3.7050896475
194 3 6.782087314 6.2437667 1.5133464757
195 3 -1.1723702238 6.7047333 6.731782599
196 3 3.3889976103 19.6532333 8.9235257707
197 3 10.7887442502 18.3583833 2.7344605286
198 3 7.336798212 5.4098833 2.4839755947
199 3 -0.6176593258 7.5386167 7.7024117179
200 3 2.8342867123 20.4871167 7.9528966518
201 3 10.2671402225 17.1489934 3.0997510572
202 3 7.8584022396 4.2004934 2.118685066
203 3 -0.0960552982 8.7480066 7.3371211893
204 3 2.3126826847 21.6965066 8.3181871804
205 3 10.7371210402 18.6795061 1.356793392
206 3 7.388421422 5.7310061 3.8616427312
207 3 -0.5660361158 7.2174939 9.0800788544
208 3 2.7826635023 20.1659939 6.5752295153
209 3 10.5498795286 18.8374778 0.1878637004
210 3 7.5756629335 5.8889778 5.0305724228
211 3 -0.3787946043 7.0595222 10.249008546
212 3 2.5954219908 20.0080222 5.4062998237
213 4 11.7336218446 15.4138944 2.8075186343
214 4 6.3919206175 2.4653944 2.4109174889
215 4 -1.5625369203 10.4831056 7.6293536122
216 4 3.7791643068 23.4316056 8.0259547575
217 4 12.1887287768 13.2514949 1.8160157709
218 4 5.9368136853 0.3029949 3.4024203523
219 4 -2.0176438525 12.6455051 8.6208564756
220 4 4.234271239 25.5940051 7.0344518941
221 4 10.1276179763 8.4139353 2.5779074449
222 4 7.9979244859 21.3624353 2.6405286784
223 4 0.043466948 17.4830647 7.8589648016
224 4 2.1731604385 4.5345647 7.7963435681
225 4 7.9900912798 7.6758708 3.4754784581
226 4 10.1354511824 20.6243708 1.7429576652
227 4 2.1809936445 18.2211292 6.9613937884
228 4 0.035633742 5.2726292 8.6939145813
229 4 4.7879488335 9.4135595 7.1075099998
230 4 10.468678553 22.3620595 8.5477983698
231 4 5.3831360909 16.4834405 3.3293622466
232 4 -0.2975936287 3.5349405 1.8890738766
233 4 4.5915522792 11.4542431 8.3912452861
234 4 10.6650751073 24.4027431 7.2640630835
235 4 5.5795326452 14.4427569 2.0456269603
236 4 -0.493990183 1.4942569 3.1728091629
237 4 6.9624886465 16.237419 8.0677022465
238 4 8.29413874 3.288919 7.5876061232
239 4 3.2085962778 9.659581 2.3691699999
240 4 1.8769461843 22.608081 2.8492661233
241 4 8.7116900119 17.1800698 6.6378507487
242 4 6.5449373746 4.2315698 9.0174576209
243 4 1.4593949125 8.7169302 3.7990214977
244 4 3.6261475497 21.6654302 1.4194146255
245 4 -0.015937684 9.9936523 2.6196549339
246 4 5.1014801462 22.9421523 2.5987811894
247 4 10.1870226083 15.9033477 7.8172173126
248 4 5.0696047782 2.9548477 7.8380910571
249 4 1.1584646241 9.1856659 0.8140760352
250 4 3.9270778381 22.1341659 4.404360088
251 4 9.0126203002 16.7113341 9.6227962112
252 4 6.2440070863 3.7628341 6.0325121584
253 4 8.4584289309 10.1360858 8.8400307927
254 4 6.7981984556 23.0845858 6.8152775769
255 4 1.7126559934 15.7609142 1.5968414537
256 4 3.3728864687 2.8124142 3.6215946695
257 4 10.0540997643 10.9829177 0.0939318502
258 4 8.0714426978 23.9314177 5.124504273
259 4 0.11698516 14.9140823 10.3429403962
260 4 2.0996422265 1.9655823 5.3123679734
261 4 5.7894254365 7.5800519 6.69003511
262 4 9.46720195 20.5285519 8.9652732597
263 4 4.3816594878 18.3169481 3.7468371365
264 4 0.7038829743 5.3684481 1.4715989867
265 4 4.3685907189 5.7983383 6.3560551981
266 4 -2.1519633324 18.7468383 9.2992531716
267 4 5.8024942054 20.0986617 4.0808170484
268 4 12.3230482568 7.1501617 1.1376190749
269 4 3.3660980738 5.4590876 4.3104282378
270 4 1.7194443884 18.4075876 0.9080078854
271 4 6.8049868506 20.4379124 6.1264440087
272 4 8.4516405359 7.4894124 9.528864361
273 4 5.2209234391 8.7195199 2.88057674
274 4 -0.1353809769 21.6680199 2.3378593832
275 4 4.9501614852 17.1774801 7.5562955064
276 4 10.3064659013 4.2289801 8.0990128632
277 4 7.4991952535 13.828998 9.8628442729
278 4 7.757432133 0.880498 5.7924640968
279 4 2.6718896708 12.068002 0.5740279736
280 4 2.4136527913 25.016502 4.6444081497
281 4 9.5812540593 14.450526 1.482035859
282 4 8.5442884029 1.502026 3.7364002642
283 4 0.5898308651 11.446474 8.9548363875
284 4 1.6267965214 24.394974 6.7004719822
285 4 5.9783175945 14.813084 0.0730581057
286 4 -0.8927751323 1.864584 5.1453780175
287 4 4.1927673299 11.083916 10.3638141407
288 4 11.0638600566 24.032416 5.2914942289
289 4 3.7859411942 14.217453 8.3808084139
290 4 -1.5693138077 1.268953 7.2744999558
291 4 6.3851437301 11.679547 2.0560638325
292 4 11.7403987321 24.628047 3.1623722907
293 4 10.8593820395 17.3069651 6.2725602201
294 4 4.397245347 4.3584651 9.3827481496
295 4 -0.6882971152 8.5900349 4.1643120263
296 4 5.7738395774 21.5385349 1.0541240969
297 4 -1.2868498012 19.3631869 5.6776585021
298 4 3.5034771877 6.4146869 9.9776498676
299 4 11.4579347255 6.5338131 4.7592137444
300 4 6.6676077367 19.4823131 0.4592223788
301 4 11.7064912798 20.0209707 3.4754784581
302 4 6.4190511824 7.0724707 1.7429576652
303 4 -1.5354063555 5.8760293 6.9613937884
304 4 3.752033742 18.8245293 8.6939145813
305 4 9.8882049572 16.599977 2.4526649779
306 4 8.2373375049 3.651477 2.7657711453
307 4 0.2828799671 9.297023 7.9842072685
308 4 1.9337474194 22.245523 7.6711011011
