LAMMPS (2 Aug 2023)
package omp 8
WARNING: OpenMP support not enabled during compilation; using 1 thread only. (../fix_omp.cpp:116)
# Compute elastic constant tensor for a crystal at finite temperature
#
# WARNING: This script attempts to measure small differences in
# statistical averages generated by finite temperature MD simulations.
# This creates many more opportunities for errors to occur, compared
# to the zero temperature version provided in examples/ELASTIC.
# Hence, it is always a good idea to start with the zero temperature
# calculation, before attempting to use this script.
#
# Written by Aidan Thompson (Sandia, athomps@sandia.gov)
#
#  This script uses the following three include files.
#
#   init.mod      (must be modified for different crystal structures)
# 	       	  Define units, MD parameters, deformation parameters,
#		  and initial configuration of the atoms and simulation cell.
#
#
#   potential.mod    (must be modified for different pair styles)
# 		     Define pair style and other attributes
#		     not stored in restart file
#
#
#   displace.mod    (displace.mod should not need to be modified)
# 		    Perform positive and negative box displacements
# 		    in direction ${dir} and size ${up}.
# 		    It uses the resultant changes
#		    in stress to compute one
# 		    row of the elastic stiffness tensor
#
#		    Inputs variables:
#		    	   dir = the Voigt deformation component
#		    		    (1,2,3,4,5,6)
#		    Global constants:
#       	    	   up = the deformation magnitude (strain units)
#       		   cfac = conversion from LAMMPS pressure units to
#               	   output units for elastic constants
#
#
#  To run this on a different system, it should only be necessary to
#  modify the files init.mod and potential.mod. In order to calculate
#  the elastic constants correctly, care must be taken to specify
#  the correct units in init.mod (units, cfac and cunits). It is also
#  important to verify that the MD sampling of stress components
#  is generating accurate statistical averages.
#  One indication of this is that the elastic constants are insensitive
#  to the choice of the variable ${up} in init.mod. Another is to
#  check for finite size effects.
#

include init.mod
# NOTE: This script can be modified for different atomic structures,
# units, etc. See in.elastic for more info.
#

variable temp equal 2000.0                # temperature of initial sample [K]

# Define the finite deformation size. Try several values of this
# variable to verify that results do not depend on it.
variable up equal 2.0e-2

# metal units, elastic constants in GPa
units		metal
variable cfac equal 1.0e-4
variable cunits string GPa

# Define MD parameters
variable nevery equal 10                  # sampling interval
variable nrepeat equal 10                 # number of samples
variable nfreq equal ${nevery}*${nrepeat} # length of one average
variable nfreq equal 10*${nrepeat} 
variable nfreq equal 10*10 
variable nthermo equal ${nfreq}           # interval for thermo output
variable nthermo equal 100           
variable nequil equal 10*${nthermo}       # length of equilibration run
variable nequil equal 10*100       
variable nrun equal 3*${nthermo}          # length of equilibrated run
variable nrun equal 3*100          
#variable temp equal 2000.0                # temperature of initial sample
variable timestep equal 0.001             # timestep
variable mass1 equal 28.06                # mass
variable adiabatic equal 0                # adiabatic (1) or isothermal (2)
variable tdamp equal 0.01                 # time constant for thermostat
variable seed equal 123457                # seed for thermostat

# generate the box and atom positions using a diamond lattice

dimension    3
boundary     p p p
read_data    data.in
Reading data file ...
  orthogonal box = (-9.11425 -7.2914 -7.2914) to (9.11425 7.2914 7.2914)
  1 by 1 by 1 MPI processor grid
  reading atoms ...
  320 atoms
  read_data CPU = 0.002 seconds
replicate    1 1 1
Replication is creating a 1x1x1 = 1 times larger system...
  orthogonal box = (-9.11425 -7.2914 -7.2914) to (9.11425 7.2914 7.2914)
  1 by 1 by 1 MPI processor grid
  320 atoms
  replicate CPU = 0.001 seconds
change_box   all triclinic
Changing box ...
  triclinic box = (-9.11425 -7.2914 -7.2914) to (9.11425 7.2914 7.2914) with tilt (0 0 0)

# Need to set mass to something, just to satisfy LAMMPS in this case (or other case sw,tersoff, bop or lj, etc potential)
mass 1 58.933 # Co
mass 2 58.690 # Ni
mass 3 51.960 # Cr
mass 4 55.847 # Fe
mass 5 54.940 # Mn

velocity	all create ${temp} 87287
velocity	all create 2000 87287



# Compute initial state

variable thermostat equal 1
include potential.mod
# NOTE: This script can be modified for different pair styles
# See in.elastic for more info.

# we must undefine any fix ave/* fix before using reset_timestep
if "$(is_defined(fix,avp))" then "unfix avp"
reset_timestep 0

variable elem string "Co Ni Cr Fe Mn"

#-------------------- Force field --------------------------------------------------------
pair_style      m3gnet /mnt/d/lammps/potentials/M3GNET
#pair_style      m3gnet/d3 /mnt/d/lammps/potentials/M3GNET

#pair_coeff      * *  MP-2021.2.8-EFS ${elem} # M3GNet <https://github.com/materialsvirtuallab/m3gnet> will be called
pair_coeff      * *  M3GNet-MP-2021.2.8-PES ${elem} # MatGL <https://github.com/materialsvirtuallab/matgl> will be called
pair_coeff      * *  M3GNet-MP-2021.2.8-PES Co Ni Cr Fe Mn 

# Setup neighbor style
neighbor 1.0 nsq
neigh_modify once no every 1 delay 0 check yes

# Setup output

fix avp all ave/time  ${nevery} ${nrepeat} ${nfreq} c_thermo_press mode vector
fix avp all ave/time  10 ${nrepeat} ${nfreq} c_thermo_press mode vector
fix avp all ave/time  10 10 ${nfreq} c_thermo_press mode vector
fix avp all ave/time  10 10 100 c_thermo_press mode vector
thermo		${nthermo}
thermo		100
thermo_style custom step temp pe press f_avp[1] f_avp[2] f_avp[3] f_avp[4] f_avp[5] f_avp[6]
thermo_modify norm no

# Setup MD

timestep ${timestep}
timestep 0.001
fix 4 all nve
if "${thermostat} == 1" then    "fix 5 all langevin ${temp} ${temp} ${tdamp} ${seed}"
fix 5 all langevin ${temp} ${temp} ${tdamp} ${seed}
fix 5 all langevin 2000 ${temp} ${tdamp} ${seed}
fix 5 all langevin 2000 2000 ${tdamp} ${seed}
fix 5 all langevin 2000 2000 0.01 ${seed}
fix 5 all langevin 2000 2000 0.01 123457


run ${nequil}
run 1000
No /omp style for force computation currently active
Neighbor list info ...
  update: every = 1 steps, delay = 0 steps, check = yes
  max neighbors/atom: 2000, page size: 100000
  master list distance cutoff = 6
  ghost atom cutoff = 6
  1 neighbor lists, perpetual/occasional/extra = 1 0 0
  (1) pair m3gnet, perpetual
      attributes: full, newton on, omp
      pair build: full/nsq/omp
      stencil: none
      bin: none
Per MPI rank memory allocation (min/avg/max) = 3.109 | 3.109 | 3.109 Mbytes
   Step          Temp          PotEng         Press         f_avp[1]       f_avp[2]       f_avp[3]       f_avp[4]       f_avp[5]       f_avp[6]   
         0   2000          -2536.0669     -110342.13      0              0              0              0              0              0            
       100   1875.0258     -2494.3213     -29231.04      -49324.129     -52778.8       -52484.458     -204.6688       2204.7242     -2025.3788    
       200   1896.1693     -2484.1282     -17162.403     -15810.246     -17321.412     -17686.08      -4286.627      -260.7284      -236.19574    
       300   1931.595      -2483.4346     -12805.385     -12406.489     -14592.389     -13214.905      934.70973     -2752.592       2473.3117    
       400   1915.4357     -2479.8218     -8089.2355     -4532.2627     -11365.822     -11262.606     -2874.9031      4835.7683      3131.1378    
       500   1966.7304     -2480.2549     -8695.0737     -6819.3529     -7297.5022     -13898.468     -2705.0619      3096.9196     -1857.4139    
       600   1980.0649     -2472.4087      6992.5896     -2051.4567     -2484.3184     -2050.5911     -244.7723       3935.9527      748.67666    
       700   1865.6763     -2475.3682     -900.81352     -6189.1333      2535.7988      995.28259     -271.88736      2081.132       1770.7041    
       800   2069.2658     -2468.2085      12959.637      1843.4713      7970.5934     -4575.3874     -372.85222      5564.8898     -3063.2555    
       900   1908.5201     -2470.9758      3081.5866     -3583.1314      13763.67       13683.442      3354.6445      1685.471      -429.91003    
      1000   1904.9989     -2474.8826     -4723.2124     -8660.0736      9422.5615      7587.2776     -1662.4011      1813.2521      3339.7298    
Loop time of 206.038 on 1 procs for 1000 steps with 320 atoms

Performance: 0.419 ns/day, 57.233 hours/ns, 4.853 timesteps/s, 1.553 katom-step/s
876.7% CPU use with 1 MPI tasks x no OpenMP threads

MPI task timing breakdown:
Section |  min time  |  avg time  |  max time  |%varavg| %total
---------------------------------------------------------------
Pair    | 205.98     | 205.98     | 205.98     |   0.0 | 99.97
Neigh   | 0.025111   | 0.025111   | 0.025111   |   0.0 |  0.01
Comm    | 0.0096064  | 0.0096064  | 0.0096064  |   0.0 |  0.00
Output  | 0.001708   | 0.001708   | 0.001708   |   0.0 |  0.00
Modify  | 0.019017   | 0.019017   | 0.019017   |   0.0 |  0.01
Other   |            | 0.003193   |            |       |  0.00

Nlocal:            320 ave         320 max         320 min
Histogram: 1 0 0 0 0 0 0 0 0 0
Nghost:           1576 ave        1576 max        1576 min
Histogram: 1 0 0 0 0 0 0 0 0 0
Neighs:              0 ave           0 max           0 min
Histogram: 1 0 0 0 0 0 0 0 0 0
FullNghs:        23368 ave       23368 max       23368 min
Histogram: 1 0 0 0 0 0 0 0 0 0

Total # of neighbors = 23368
Ave neighs/atom = 73.025
Neighbor list builds = 22
Dangerous builds = 0

if "${adiabatic} == 1" then "variable thermostat equal 0" else "variable thermostat equal 1"
variable thermostat equal 1

print ${thermostat}
print 1
1

include potential.mod
# NOTE: This script can be modified for different pair styles
# See in.elastic for more info.

# we must undefine any fix ave/* fix before using reset_timestep
if "$(is_defined(fix,avp))" then "unfix avp"
unfix avp
reset_timestep 0

variable elem string "Co Ni Cr Fe Mn"

#-------------------- Force field --------------------------------------------------------
pair_style      m3gnet /mnt/d/lammps/potentials/M3GNET
#pair_style      m3gnet/d3 /mnt/d/lammps/potentials/M3GNET

#pair_coeff      * *  MP-2021.2.8-EFS ${elem} # M3GNet <https://github.com/materialsvirtuallab/m3gnet> will be called
pair_coeff      * *  M3GNet-MP-2021.2.8-PES ${elem} # MatGL <https://github.com/materialsvirtuallab/matgl> will be called
pair_coeff      * *  M3GNet-MP-2021.2.8-PES Co Ni Cr Fe Mn 

# Setup neighbor style
neighbor 1.0 nsq
neigh_modify once no every 1 delay 0 check yes

# Setup output

fix avp all ave/time  ${nevery} ${nrepeat} ${nfreq} c_thermo_press mode vector
fix avp all ave/time  10 ${nrepeat} ${nfreq} c_thermo_press mode vector
fix avp all ave/time  10 10 ${nfreq} c_thermo_press mode vector
fix avp all ave/time  10 10 100 c_thermo_press mode vector
thermo		${nthermo}
thermo		100
thermo_style custom step temp pe press f_avp[1] f_avp[2] f_avp[3] f_avp[4] f_avp[5] f_avp[6]
WARNING: New thermo_style command, previous thermo_modify settings will be lost (../output.cpp:903)
thermo_modify norm no

# Setup MD

timestep ${timestep}
timestep 0.001
fix 4 all nve
if "${thermostat} == 1" then    "fix 5 all langevin ${temp} ${temp} ${tdamp} ${seed}"
fix 5 all langevin ${temp} ${temp} ${tdamp} ${seed}
fix 5 all langevin 2000 ${temp} ${tdamp} ${seed}
fix 5 all langevin 2000 2000 ${tdamp} ${seed}
fix 5 all langevin 2000 2000 0.01 ${seed}
fix 5 all langevin 2000 2000 0.01 123457


run ${nrun}
run 300
No /omp style for force computation currently active
Per MPI rank memory allocation (min/avg/max) = 3.109 | 3.109 | 3.109 Mbytes
   Step          Temp          PotEng         Press         f_avp[1]       f_avp[2]       f_avp[3]       f_avp[4]       f_avp[5]       f_avp[6]   
         0   1904.9989     -2474.8828     -4723.3499      0              0              0              0              0              0            
       100   1949.218      -2478.8823     -8369.7729     -13639.587      1402.2442     -944.23814     -2529.0361      2859.9476      2444.3741    
       200   1935.9383     -2473.8333     -1185.9347     -6607.5102      7524.2501     -5047.1184     -3329.6429     -613.3609      -3060.7825    
       300   1941.0126     -2475.2346      3493.358      -3423.2896      4068.1856     -3188.6864     -1421.7088      910.09098     -1220.5026    
Loop time of 64.9028 on 1 procs for 300 steps with 320 atoms

Performance: 0.399 ns/day, 60.095 hours/ns, 4.622 timesteps/s, 1.479 katom-step/s
867.7% CPU use with 1 MPI tasks x no OpenMP threads

MPI task timing breakdown:
Section |  min time  |  avg time  |  max time  |%varavg| %total
---------------------------------------------------------------
Pair    | 64.884     | 64.884     | 64.884     |   0.0 | 99.97
Neigh   | 0.0083743  | 0.0083743  | 0.0083743  |   0.0 |  0.01
Comm    | 0.0029931  | 0.0029931  | 0.0029931  |   0.0 |  0.00
Output  | 0.00079705 | 0.00079705 | 0.00079705 |   0.0 |  0.00
Modify  | 0.0059857  | 0.0059857  | 0.0059857  |   0.0 |  0.01
Other   |            | 0.0009694  |            |       |  0.00

Nlocal:            320 ave         320 max         320 min
Histogram: 1 0 0 0 0 0 0 0 0 0
Nghost:           1560 ave        1560 max        1560 min
Histogram: 1 0 0 0 0 0 0 0 0 0
Neighs:              0 ave           0 max           0 min
Histogram: 1 0 0 0 0 0 0 0 0 0
FullNghs:        23200 ave       23200 max       23200 min
Histogram: 1 0 0 0 0 0 0 0 0 0

Total # of neighbors = 23200
Ave neighs/atom = 72.5
Neighbor list builds = 7
Dangerous builds = 0

variable pxx0 equal f_avp[1]
variable pyy0 equal f_avp[2]
variable pzz0 equal f_avp[3]
variable pxy0 equal f_avp[4]
variable pxz0 equal f_avp[5]
variable pyz0 equal f_avp[6]

variable tmp equal lx
variable lx0 equal ${tmp}
variable lx0 equal 18.2285
variable tmp equal ly
variable ly0 equal ${tmp}
variable ly0 equal 14.5828
variable tmp equal lz
variable lz0 equal ${tmp}
variable lz0 equal 14.5828

# These formulas define the derivatives w.r.t. strain components
# Constants uses $, variables use v_
variable d1 equal -(v_pxx1-${pxx0})/(v_delta/v_len0)*${cfac}
variable d1 equal -(v_pxx1--3423.28956145877)/(v_delta/v_len0)*${cfac}
variable d1 equal -(v_pxx1--3423.28956145877)/(v_delta/v_len0)*0.0001
variable d2 equal -(v_pyy1-${pyy0})/(v_delta/v_len0)*${cfac}
variable d2 equal -(v_pyy1-4068.18559381578)/(v_delta/v_len0)*${cfac}
variable d2 equal -(v_pyy1-4068.18559381578)/(v_delta/v_len0)*0.0001
variable d3 equal -(v_pzz1-${pzz0})/(v_delta/v_len0)*${cfac}
variable d3 equal -(v_pzz1--3188.68643522182)/(v_delta/v_len0)*${cfac}
variable d3 equal -(v_pzz1--3188.68643522182)/(v_delta/v_len0)*0.0001
variable d4 equal -(v_pyz1-${pyz0})/(v_delta/v_len0)*${cfac}
variable d4 equal -(v_pyz1--1220.50259847692)/(v_delta/v_len0)*${cfac}
variable d4 equal -(v_pyz1--1220.50259847692)/(v_delta/v_len0)*0.0001
variable d5 equal -(v_pxz1-${pxz0})/(v_delta/v_len0)*${cfac}
variable d5 equal -(v_pxz1-910.090976949758)/(v_delta/v_len0)*${cfac}
variable d5 equal -(v_pxz1-910.090976949758)/(v_delta/v_len0)*0.0001
variable d6 equal -(v_pxy1-${pxy0})/(v_delta/v_len0)*${cfac}
variable d6 equal -(v_pxy1--1421.7087811893)/(v_delta/v_len0)*${cfac}
variable d6 equal -(v_pxy1--1421.7087811893)/(v_delta/v_len0)*0.0001

# Write restart
write_restart restart.equil
System init for write_restart ...
No /omp style for force computation currently active

# uxx Perturbation

variable dir equal 1
include displace.mod
# NOTE: This script should not need to be
# modified. See in.elastic for more info.
#
# Find which reference length to use

if "${dir} == 1" then    "variable len0 equal ${lx0}"
variable len0 equal ${lx0}
variable len0 equal 18.2285
if "${dir} == 2" then    "variable len0 equal ${ly0}"
if "${dir} == 3" then    "variable len0 equal ${lz0}"
if "${dir} == 4" then    "variable len0 equal ${lz0}"
if "${dir} == 5" then    "variable len0 equal ${lz0}"
if "${dir} == 6" then    "variable len0 equal ${ly0}"

# Reset box and simulation parameters

clear
package omp 8
WARNING: OpenMP support not enabled during compilation; using 1 thread only. (../fix_omp.cpp:116)
box tilt large

The 'box' command has been removed and will be ignored

read_restart restart.equil
Reading restart file ...
  restart file = 2 Aug 2023, LAMMPS = 2 Aug 2023
  restoring atom style atomic from restart
  triclinic box = (-9.11425 -7.2914 -7.2914) to (9.11425 7.2914 7.2914) with tilt (0 0 0)
  1 by 1 by 1 MPI processor grid
  pair style m3gnet stores no restart info
  320 atoms
  read_restart CPU = 0.002 seconds
include potential.mod
# NOTE: This script can be modified for different pair styles
# See in.elastic for more info.

# we must undefine any fix ave/* fix before using reset_timestep
if "$(is_defined(fix,avp))" then "unfix avp"
reset_timestep 0

variable elem string "Co Ni Cr Fe Mn"

#-------------------- Force field --------------------------------------------------------
pair_style      m3gnet /mnt/d/lammps/potentials/M3GNET
#pair_style      m3gnet/d3 /mnt/d/lammps/potentials/M3GNET

#pair_coeff      * *  MP-2021.2.8-EFS ${elem} # M3GNet <https://github.com/materialsvirtuallab/m3gnet> will be called
pair_coeff      * *  M3GNet-MP-2021.2.8-PES ${elem} # MatGL <https://github.com/materialsvirtuallab/matgl> will be called
pair_coeff      * *  M3GNet-MP-2021.2.8-PES Co Ni Cr Fe Mn 

# Setup neighbor style
neighbor 1.0 nsq
neigh_modify once no every 1 delay 0 check yes

# Setup output

fix avp all ave/time  ${nevery} ${nrepeat} ${nfreq} c_thermo_press mode vector
fix avp all ave/time  10 ${nrepeat} ${nfreq} c_thermo_press mode vector
fix avp all ave/time  10 10 ${nfreq} c_thermo_press mode vector
fix avp all ave/time  10 10 100 c_thermo_press mode vector
thermo		${nthermo}
thermo		100
thermo_style custom step temp pe press f_avp[1] f_avp[2] f_avp[3] f_avp[4] f_avp[5] f_avp[6]
thermo_modify norm no

# Setup MD

timestep ${timestep}
timestep 0.001
fix 4 all nve
if "${thermostat} == 1" then    "fix 5 all langevin ${temp} ${temp} ${tdamp} ${seed}"
fix 5 all langevin ${temp} ${temp} ${tdamp} ${seed}
fix 5 all langevin 2000 ${temp} ${tdamp} ${seed}
fix 5 all langevin 2000 2000 ${tdamp} ${seed}
fix 5 all langevin 2000 2000 0.01 ${seed}
fix 5 all langevin 2000 2000 0.01 123457



# Negative deformation

variable delta equal -${up}*${len0}
variable delta equal -0.02*${len0}
variable delta equal -0.02*18.2285
variable deltaxy equal -${up}*xy
variable deltaxy equal -0.02*xy
variable deltaxz equal -${up}*xz
variable deltaxz equal -0.02*xz
variable deltayz equal -${up}*yz
variable deltayz equal -0.02*yz
if "${dir} == 1" then    "change_box all x delta 0 ${delta} xy delta ${deltaxy} xz delta ${deltaxz} remap units box"
change_box all x delta 0 ${delta} xy delta ${deltaxy} xz delta ${deltaxz} remap units box
change_box all x delta 0 -0.36457 xy delta ${deltaxy} xz delta ${deltaxz} remap units box
change_box all x delta 0 -0.36457 xy delta -0 xz delta ${deltaxz} remap units box
change_box all x delta 0 -0.36457 xy delta -0 xz delta -0 remap units box
Changing box ...
  triclinic box = (-9.11425 -7.2914 -7.2914) to (8.74968 7.2914 7.2914) with tilt (0 0 0)
  triclinic box = (-9.11425 -7.2914 -7.2914) to (8.74968 7.2914 7.2914) with tilt (0 0 0)
  triclinic box = (-9.11425 -7.2914 -7.2914) to (8.74968 7.2914 7.2914) with tilt (0 0 0)
if "${dir} == 2" then    "change_box all y delta 0 ${delta} yz delta ${deltayz} remap units box"
if "${dir} == 3" then    "change_box all z delta 0 ${delta} remap units box"
if "${dir} == 4" then    "change_box all yz delta ${delta} remap units box"
if "${dir} == 5" then    "change_box all xz delta ${delta} remap units box"
if "${dir} == 6" then    "change_box all xy delta ${delta} remap units box"

# Run MD

run ${nequil}
run 1000
No /omp style for force computation currently active
Neighbor list info ...
  update: every = 1 steps, delay = 0 steps, check = yes
  max neighbors/atom: 2000, page size: 100000
  master list distance cutoff = 6
  ghost atom cutoff = 6
  1 neighbor lists, perpetual/occasional/extra = 1 0 0
  (1) pair m3gnet, perpetual
      attributes: full, newton on, omp
      pair build: full/nsq/omp
      stencil: none
      bin: none
Per MPI rank memory allocation (min/avg/max) = 3.102 | 3.102 | 3.102 Mbytes
   Step          Temp          PotEng         Press         f_avp[1]       f_avp[2]       f_avp[3]       f_avp[4]       f_avp[5]       f_avp[6]   
         0   1941.0126     -2475.3218      38526.933      0              0              0              0              0              0            
       100   1878.4432     -2474.6782      29536.854      27846.296      31219.212      40341.15      -8227.2821      4393.5462     -104.11207    
       200   1909.2081     -2470.8699      42635.336      26149.444      31302.761      49984.148     -11774.137      5710.4165      1226.023     
       300   1875.2191     -2472.3447      36167.883      28848.094      42857.96       48060.461     -4232.9345      6395.2494     -85.017202    
       400   1950.4419     -2474.6724      34197.57       23180.314      35397.252      40980.335     -4209.4241      5451.595       2040.4109    
       500   1958.7269     -2480.9314      26296.165      25402.855      26814.77       37577.75      -627.15749      3337.7328      1689.3632    
       600   2056.3579     -2476.3752      30517.145      29616.49       27173.622      32840.122     -234.35594      3621.1279     -476.47878    
       700   1904.1381     -2477.4165      27481.694      28273.964      33236.332      37870.243     -2209.1368      1783.739      -698.63651    
       800   2044.5773     -2470.3503      36539.92       33795.298      35990.324      30762.822     -4553.3977      177.82511      2389.695     
       900   1965.7536     -2471.9128      38838.996      33854.501      38804.024      34712.104     -3093.3397     -409.70297      5725.9212    
      1000   1933.4528     -2473.6858      38875.928      35984.006      45286.253      40565.062     -11258.775     -1986.4622      1916.4035    
Loop time of 221.844 on 1 procs for 1000 steps with 320 atoms

Performance: 0.389 ns/day, 61.623 hours/ns, 4.508 timesteps/s, 1.442 katom-step/s
860.9% CPU use with 1 MPI tasks x no OpenMP threads

MPI task timing breakdown:
Section |  min time  |  avg time  |  max time  |%varavg| %total
---------------------------------------------------------------
Pair    | 221.78     | 221.78     | 221.78     |   0.0 | 99.97
Neigh   | 0.028675   | 0.028675   | 0.028675   |   0.0 |  0.01
Comm    | 0.010069   | 0.010069   | 0.010069   |   0.0 |  0.00
Output  | 0.0017263  | 0.0017263  | 0.0017263  |   0.0 |  0.00
Modify  | 0.019395   | 0.019395   | 0.019395   |   0.0 |  0.01
Other   |            | 0.003318   |            |       |  0.00

Nlocal:            320 ave         320 max         320 min
Histogram: 1 0 0 0 0 0 0 0 0 0
Nghost:           1579 ave        1579 max        1579 min
Histogram: 1 0 0 0 0 0 0 0 0 0
Neighs:              0 ave           0 max           0 min
Histogram: 1 0 0 0 0 0 0 0 0 0
FullNghs:        23562 ave       23562 max       23562 min
Histogram: 1 0 0 0 0 0 0 0 0 0

Total # of neighbors = 23562
Ave neighs/atom = 73.63125
Neighbor list builds = 23
Dangerous builds = 0
include potential.mod
# NOTE: This script can be modified for different pair styles
# See in.elastic for more info.

# we must undefine any fix ave/* fix before using reset_timestep
if "$(is_defined(fix,avp))" then "unfix avp"
unfix avp
reset_timestep 0

variable elem string "Co Ni Cr Fe Mn"

#-------------------- Force field --------------------------------------------------------
pair_style      m3gnet /mnt/d/lammps/potentials/M3GNET
#pair_style      m3gnet/d3 /mnt/d/lammps/potentials/M3GNET

#pair_coeff      * *  MP-2021.2.8-EFS ${elem} # M3GNet <https://github.com/materialsvirtuallab/m3gnet> will be called
pair_coeff      * *  M3GNet-MP-2021.2.8-PES ${elem} # MatGL <https://github.com/materialsvirtuallab/matgl> will be called
pair_coeff      * *  M3GNet-MP-2021.2.8-PES Co Ni Cr Fe Mn 

# Setup neighbor style
neighbor 1.0 nsq
neigh_modify once no every 1 delay 0 check yes

# Setup output

fix avp all ave/time  ${nevery} ${nrepeat} ${nfreq} c_thermo_press mode vector
fix avp all ave/time  10 ${nrepeat} ${nfreq} c_thermo_press mode vector
fix avp all ave/time  10 10 ${nfreq} c_thermo_press mode vector
fix avp all ave/time  10 10 100 c_thermo_press mode vector
thermo		${nthermo}
thermo		100
thermo_style custom step temp pe press f_avp[1] f_avp[2] f_avp[3] f_avp[4] f_avp[5] f_avp[6]
WARNING: New thermo_style command, previous thermo_modify settings will be lost (../output.cpp:903)
thermo_modify norm no

# Setup MD

timestep ${timestep}
timestep 0.001
fix 4 all nve
if "${thermostat} == 1" then    "fix 5 all langevin ${temp} ${temp} ${tdamp} ${seed}"
fix 5 all langevin ${temp} ${temp} ${tdamp} ${seed}
fix 5 all langevin 2000 ${temp} ${tdamp} ${seed}
fix 5 all langevin 2000 2000 ${tdamp} ${seed}
fix 5 all langevin 2000 2000 0.01 ${seed}
fix 5 all langevin 2000 2000 0.01 123457


run ${nrun}
run 300
No /omp style for force computation currently active
Per MPI rank memory allocation (min/avg/max) = 3.102 | 3.102 | 3.102 Mbytes
   Step          Temp          PotEng         Press         f_avp[1]       f_avp[2]       f_avp[3]       f_avp[4]       f_avp[5]       f_avp[6]   
         0   1933.4528     -2473.6863      38876.291      0              0              0              0              0              0            
       100   1905.0844     -2475.6382      35713.643      36912.605      41303.178      37722.895     -10681.453     -2160.577      -1813.1089    
       200   1955.6375     -2475.3066      32978.084      28585.791      44088.794      38929.486     -8769.4728      1011.4389      4.1091998    
       300   1939.8672     -2476.7322      27934.291      21884.429      36379.6        29714.298     -9554.1131      3275.8392      2197.956     
Loop time of 67.0688 on 1 procs for 300 steps with 320 atoms

Performance: 0.386 ns/day, 62.101 hours/ns, 4.473 timesteps/s, 1.431 katom-step/s
854.7% CPU use with 1 MPI tasks x no OpenMP threads

MPI task timing breakdown:
Section |  min time  |  avg time  |  max time  |%varavg| %total
---------------------------------------------------------------
Pair    | 67.05      | 67.05      | 67.05      |   0.0 | 99.97
Neigh   | 0.0083028  | 0.0083028  | 0.0083028  |   0.0 |  0.01
Comm    | 0.0030733  | 0.0030733  | 0.0030733  |   0.0 |  0.00
Output  | 0.00068991 | 0.00068991 | 0.00068991 |   0.0 |  0.00
Modify  | 0.0058032  | 0.0058032  | 0.0058032  |   0.0 |  0.01
Other   |            | 0.001028   |            |       |  0.00

Nlocal:            320 ave         320 max         320 min
Histogram: 1 0 0 0 0 0 0 0 0 0
Nghost:           1561 ave        1561 max        1561 min
Histogram: 1 0 0 0 0 0 0 0 0 0
Neighs:              0 ave           0 max           0 min
Histogram: 1 0 0 0 0 0 0 0 0 0
FullNghs:        23538 ave       23538 max       23538 min
Histogram: 1 0 0 0 0 0 0 0 0 0

Total # of neighbors = 23538
Ave neighs/atom = 73.55625
Neighbor list builds = 7
Dangerous builds = 0

# Obtain new stress tensor

variable pxx1 equal f_avp[1]
variable pyy1 equal f_avp[2]
variable pzz1 equal f_avp[3]
variable pxy1 equal f_avp[4]
variable pxz1 equal f_avp[5]
variable pyz1 equal f_avp[6]

# Compute elastic constant from pressure tensor

variable C1neg equal ${d1}
variable C1neg equal 126.538595053985
variable C2neg equal ${d2}
variable C2neg equal 161.557074279731
variable C3neg equal ${d3}
variable C3neg equal 164.514922762391
variable C4neg equal ${d4}
variable C4neg equal 17.0922930240128
variable C5neg equal ${d5}
variable C5neg equal 11.828741309196
variable C6neg equal ${d6}
variable C6neg equal -40.6620215211116

# Reset box and simulation parameters

clear
package omp 8
WARNING: OpenMP support not enabled during compilation; using 1 thread only. (../fix_omp.cpp:116)
box tilt large

The 'box' command has been removed and will be ignored

read_restart restart.equil
Reading restart file ...
  restart file = 2 Aug 2023, LAMMPS = 2 Aug 2023
  restoring atom style atomic from restart
  triclinic box = (-9.11425 -7.2914 -7.2914) to (9.11425 7.2914 7.2914) with tilt (0 0 0)
  1 by 1 by 1 MPI processor grid
  pair style m3gnet stores no restart info
  320 atoms
  read_restart CPU = 0.003 seconds
include potential.mod
# NOTE: This script can be modified for different pair styles
# See in.elastic for more info.

# we must undefine any fix ave/* fix before using reset_timestep
if "$(is_defined(fix,avp))" then "unfix avp"
reset_timestep 0

variable elem string "Co Ni Cr Fe Mn"

#-------------------- Force field --------------------------------------------------------
pair_style      m3gnet /mnt/d/lammps/potentials/M3GNET
#pair_style      m3gnet/d3 /mnt/d/lammps/potentials/M3GNET

#pair_coeff      * *  MP-2021.2.8-EFS ${elem} # M3GNet <https://github.com/materialsvirtuallab/m3gnet> will be called
pair_coeff      * *  M3GNet-MP-2021.2.8-PES ${elem} # MatGL <https://github.com/materialsvirtuallab/matgl> will be called
pair_coeff      * *  M3GNet-MP-2021.2.8-PES Co Ni Cr Fe Mn 

# Setup neighbor style
neighbor 1.0 nsq
neigh_modify once no every 1 delay 0 check yes

# Setup output

fix avp all ave/time  ${nevery} ${nrepeat} ${nfreq} c_thermo_press mode vector
fix avp all ave/time  10 ${nrepeat} ${nfreq} c_thermo_press mode vector
fix avp all ave/time  10 10 ${nfreq} c_thermo_press mode vector
fix avp all ave/time  10 10 100 c_thermo_press mode vector
thermo		${nthermo}
thermo		100
thermo_style custom step temp pe press f_avp[1] f_avp[2] f_avp[3] f_avp[4] f_avp[5] f_avp[6]
thermo_modify norm no

# Setup MD

timestep ${timestep}
timestep 0.001
fix 4 all nve
if "${thermostat} == 1" then    "fix 5 all langevin ${temp} ${temp} ${tdamp} ${seed}"
fix 5 all langevin ${temp} ${temp} ${tdamp} ${seed}
fix 5 all langevin 2000 ${temp} ${tdamp} ${seed}
fix 5 all langevin 2000 2000 ${tdamp} ${seed}
fix 5 all langevin 2000 2000 0.01 ${seed}
fix 5 all langevin 2000 2000 0.01 123457



# Positive deformation

variable delta equal ${up}*${len0}
variable delta equal 0.02*${len0}
variable delta equal 0.02*18.2285
variable deltaxy equal ${up}*xy
variable deltaxy equal 0.02*xy
variable deltaxz equal ${up}*xz
variable deltaxz equal 0.02*xz
variable deltayz equal ${up}*yz
variable deltayz equal 0.02*yz
if "${dir} == 1" then    "change_box all x delta 0 ${delta} xy delta ${deltaxy} xz delta ${deltaxz} remap units box"
change_box all x delta 0 ${delta} xy delta ${deltaxy} xz delta ${deltaxz} remap units box
change_box all x delta 0 0.36457 xy delta ${deltaxy} xz delta ${deltaxz} remap units box
change_box all x delta 0 0.36457 xy delta 0 xz delta ${deltaxz} remap units box
change_box all x delta 0 0.36457 xy delta 0 xz delta 0 remap units box
Changing box ...
  triclinic box = (-9.11425 -7.2914 -7.2914) to (9.47882 7.2914 7.2914) with tilt (0 0 0)
  triclinic box = (-9.11425 -7.2914 -7.2914) to (9.47882 7.2914 7.2914) with tilt (0 0 0)
  triclinic box = (-9.11425 -7.2914 -7.2914) to (9.47882 7.2914 7.2914) with tilt (0 0 0)
if "${dir} == 2" then    "change_box all y delta 0 ${delta} yz delta ${deltayz} remap units box"
if "${dir} == 3" then    "change_box all z delta 0 ${delta} remap units box"
if "${dir} == 4" then    "change_box all yz delta ${delta} remap units box"
if "${dir} == 5" then    "change_box all xz delta ${delta} remap units box"
if "${dir} == 6" then    "change_box all xy delta ${delta} remap units box"

# Run MD

run ${nequil}
run 1000
No /omp style for force computation currently active
Neighbor list info ...
  update: every = 1 steps, delay = 0 steps, check = yes
  max neighbors/atom: 2000, page size: 100000
  master list distance cutoff = 6
  ghost atom cutoff = 6
  1 neighbor lists, perpetual/occasional/extra = 1 0 0
  (1) pair m3gnet, perpetual
      attributes: full, newton on, omp
      pair build: full/nsq/omp
      stencil: none
      bin: none
Per MPI rank memory allocation (min/avg/max) = 3.102 | 3.102 | 3.102 Mbytes
   Step          Temp          PotEng         Press         f_avp[1]       f_avp[2]       f_avp[3]       f_avp[4]       f_avp[5]       f_avp[6]   
         0   1941.0126     -2473.2014     -27653.175      0              0              0              0              0              0            
       100   1884.1657     -2467.8308     -22455.556     -36710.96      -19241.67      -9395.5048     -7661.9322      4320.6662     -373.76489    
       200   1909.5572     -2463.2673     -19879.173     -33777.934     -19479.785     -9053.1384     -10795.628      1916.9695     -2226.7408    
       300   1959.9311     -2467.1934     -15410.822     -22082.97      -16746.938     -8118.0682     -8734.0445     -1366.2192      689.84331    
       400   1936.0963     -2464.7036     -18936.356     -22566.63      -23151.56      -15267.818     -9583.9109     -3628.8183     -392.7932     
       500   1956.8617     -2469.1672     -22886.19      -23858.689     -26327.24      -18180.666      1539.1715     -2482.0497     -1433.1812    
       600   2008.8776     -2467.8008     -19935.538     -23998.813     -21769.575     -15962.254      352.53792      2618.5036     -1234.832     
       700   1872.5178     -2464.2976     -17372.163     -21445.603     -12832.455     -12274.768     -3139.7151      1654.3611     -1789.3766    
       800   2083.3512     -2458.1184     -8127.7916     -8623.6304     -18175.561     -14870.533      2330.3819     -5329.8458     -1821.8458    
       900   1945.5909     -2461.5908     -15142.465     -6072.3742     -14215.066     -11508.161     -2325.0278     -1618.7494     -44.546351    
      1000   1908.9303     -2462.2329     -14370.916     -10944.805     -18871.504     -10185.759     -7238.8054      3546.0662     -218.83491    
Loop time of 200.453 on 1 procs for 1000 steps with 320 atoms

Performance: 0.431 ns/day, 55.681 hours/ns, 4.989 timesteps/s, 1.596 katom-step/s
902.1% CPU use with 1 MPI tasks x no OpenMP threads

MPI task timing breakdown:
Section |  min time  |  avg time  |  max time  |%varavg| %total
---------------------------------------------------------------
Pair    | 200.39     | 200.39     | 200.39     |   0.0 | 99.97
Neigh   | 0.026813   | 0.026813   | 0.026813   |   0.0 |  0.01
Comm    | 0.0098857  | 0.0098857  | 0.0098857  |   0.0 |  0.00
Output  | 0.0023554  | 0.0023554  | 0.0023554  |   0.0 |  0.00
Modify  | 0.019396   | 0.019396   | 0.019396   |   0.0 |  0.01
Other   |            | 0.003168   |            |       |  0.00

Nlocal:            320 ave         320 max         320 min
Histogram: 1 0 0 0 0 0 0 0 0 0
Nghost:           1534 ave        1534 max        1534 min
Histogram: 1 0 0 0 0 0 0 0 0 0
Neighs:              0 ave           0 max           0 min
Histogram: 1 0 0 0 0 0 0 0 0 0
FullNghs:        22782 ave       22782 max       22782 min
Histogram: 1 0 0 0 0 0 0 0 0 0

Total # of neighbors = 22782
Ave neighs/atom = 71.19375
Neighbor list builds = 22
Dangerous builds = 0
include potential.mod
# NOTE: This script can be modified for different pair styles
# See in.elastic for more info.

# we must undefine any fix ave/* fix before using reset_timestep
if "$(is_defined(fix,avp))" then "unfix avp"
unfix avp
reset_timestep 0

variable elem string "Co Ni Cr Fe Mn"

#-------------------- Force field --------------------------------------------------------
pair_style      m3gnet /mnt/d/lammps/potentials/M3GNET
#pair_style      m3gnet/d3 /mnt/d/lammps/potentials/M3GNET

#pair_coeff      * *  MP-2021.2.8-EFS ${elem} # M3GNet <https://github.com/materialsvirtuallab/m3gnet> will be called
pair_coeff      * *  M3GNet-MP-2021.2.8-PES ${elem} # MatGL <https://github.com/materialsvirtuallab/matgl> will be called
pair_coeff      * *  M3GNet-MP-2021.2.8-PES Co Ni Cr Fe Mn 

# Setup neighbor style
neighbor 1.0 nsq
neigh_modify once no every 1 delay 0 check yes

# Setup output

fix avp all ave/time  ${nevery} ${nrepeat} ${nfreq} c_thermo_press mode vector
fix avp all ave/time  10 ${nrepeat} ${nfreq} c_thermo_press mode vector
fix avp all ave/time  10 10 ${nfreq} c_thermo_press mode vector
fix avp all ave/time  10 10 100 c_thermo_press mode vector
thermo		${nthermo}
thermo		100
thermo_style custom step temp pe press f_avp[1] f_avp[2] f_avp[3] f_avp[4] f_avp[5] f_avp[6]
WARNING: New thermo_style command, previous thermo_modify settings will be lost (../output.cpp:903)
thermo_modify norm no

# Setup MD

timestep ${timestep}
timestep 0.001
fix 4 all nve
if "${thermostat} == 1" then    "fix 5 all langevin ${temp} ${temp} ${tdamp} ${seed}"
fix 5 all langevin ${temp} ${temp} ${tdamp} ${seed}
fix 5 all langevin 2000 ${temp} ${tdamp} ${seed}
fix 5 all langevin 2000 2000 ${tdamp} ${seed}
fix 5 all langevin 2000 2000 0.01 ${seed}
fix 5 all langevin 2000 2000 0.01 123457


run ${nrun}
run 300
No /omp style for force computation currently active
Per MPI rank memory allocation (min/avg/max) = 3.102 | 3.102 | 3.102 Mbytes
   Step          Temp          PotEng         Press         f_avp[1]       f_avp[2]       f_avp[3]       f_avp[4]       f_avp[5]       f_avp[6]   
         0   1908.9303     -2462.2332     -14370.903      0              0              0              0              0              0            
       100   1918.8371     -2467.9866     -23888.725     -16881.135     -21769.999     -14319.248     -3427.7271      575.95122      239.51547    
       200   1911.8242     -2463.8743     -19160.456     -17500.633     -24915.552     -16181.602     -5430.7972     -2076.9357      3099.342     
       300   1911.9384     -2465.6462     -18971.731     -14684.592     -23290.824     -14062.943     -2660.9392     -9303.7935     -1633.6491    
Loop time of 60.0731 on 1 procs for 300 steps with 320 atoms

Performance: 0.431 ns/day, 55.623 hours/ns, 4.994 timesteps/s, 1.598 katom-step/s
901.4% CPU use with 1 MPI tasks x no OpenMP threads

MPI task timing breakdown:
Section |  min time  |  avg time  |  max time  |%varavg| %total
---------------------------------------------------------------
Pair    | 60.054     | 60.054     | 60.054     |   0.0 | 99.97
Neigh   | 0.008994   | 0.008994   | 0.008994   |   0.0 |  0.01
Comm    | 0.0029205  | 0.0029205  | 0.0029205  |   0.0 |  0.00
Output  | 0.00059142 | 0.00059142 | 0.00059142 |   0.0 |  0.00
Modify  | 0.0059041  | 0.0059041  | 0.0059041  |   0.0 |  0.01
Other   |            | 0.0009601  |            |       |  0.00

Nlocal:            320 ave         320 max         320 min
Histogram: 1 0 0 0 0 0 0 0 0 0
Nghost:           1548 ave        1548 max        1548 min
Histogram: 1 0 0 0 0 0 0 0 0 0
Neighs:              0 ave           0 max           0 min
Histogram: 1 0 0 0 0 0 0 0 0 0
FullNghs:        22700 ave       22700 max       22700 min
Histogram: 1 0 0 0 0 0 0 0 0 0

Total # of neighbors = 22700
Ave neighs/atom = 70.9375
Neighbor list builds = 7
Dangerous builds = 0

# Obtain new stress tensor

variable tmp equal pe
variable e1 equal ${tmp}
variable e1 equal -2465.64624023438
variable tmp equal press
variable p1 equal ${tmp}
variable p1 equal -18971.7308302716
variable tmp equal pxx
variable pxx1 equal ${tmp}
variable pxx1 equal -11215.5597873964
variable tmp equal pyy
variable pyy1 equal ${tmp}
variable pyy1 equal -27200.9586142391
variable tmp equal pzz
variable pzz1 equal ${tmp}
variable pzz1 equal -18498.6740891793
variable tmp equal pxy
variable pxy1 equal ${tmp}
variable pxy1 equal -5682.40503759131
variable tmp equal pxz
variable pxz1 equal ${tmp}
variable pxz1 equal -8371.22876361551
variable tmp equal pyz
variable pyz1 equal ${tmp}
variable pyz1 equal -375.421211001874

# Compute elastic constant from pressure tensor

variable C1pos equal ${d1}
variable C1pos equal 38.9613511296881
variable C2pos equal ${d2}
variable C2pos equal 156.345721040274
variable C3pos equal ${d3}
variable C3pos equal 76.5499382697874
variable C4pos equal ${d4}
variable C4pos equal -4.22540693737523
variable C5pos equal ${d5}
variable C5pos equal 46.4065987028263
variable C6pos equal ${d6}
variable C6pos equal 21.3034812820101

# Combine positive and negative

variable C1${dir} equal 0.5*(${C1neg}+${C1pos})
variable C11 equal 0.5*(${C1neg}+${C1pos})
variable C11 equal 0.5*(126.538595053985+${C1pos})
variable C11 equal 0.5*(126.538595053985+38.9613511296881)
variable C2${dir} equal 0.5*(${C2neg}+${C2pos})
variable C21 equal 0.5*(${C2neg}+${C2pos})
variable C21 equal 0.5*(161.557074279731+${C2pos})
variable C21 equal 0.5*(161.557074279731+156.345721040274)
variable C3${dir} equal 0.5*(${C3neg}+${C3pos})
variable C31 equal 0.5*(${C3neg}+${C3pos})
variable C31 equal 0.5*(164.514922762391+${C3pos})
variable C31 equal 0.5*(164.514922762391+76.5499382697874)
variable C4${dir} equal 0.5*(${C4neg}+${C4pos})
variable C41 equal 0.5*(${C4neg}+${C4pos})
variable C41 equal 0.5*(17.0922930240128+${C4pos})
variable C41 equal 0.5*(17.0922930240128+-4.22540693737523)
variable C5${dir} equal 0.5*(${C5neg}+${C5pos})
variable C51 equal 0.5*(${C5neg}+${C5pos})
variable C51 equal 0.5*(11.828741309196+${C5pos})
variable C51 equal 0.5*(11.828741309196+46.4065987028263)
variable C6${dir} equal 0.5*(${C6neg}+${C6pos})
variable C61 equal 0.5*(${C6neg}+${C6pos})
variable C61 equal 0.5*(-40.6620215211116+${C6pos})
variable C61 equal 0.5*(-40.6620215211116+21.3034812820101)

# Delete dir to make sure it is not reused

variable dir delete

# uyy Perturbation

variable dir equal 2
include displace.mod
# NOTE: This script should not need to be
# modified. See in.elastic for more info.
#
# Find which reference length to use

if "${dir} == 1" then    "variable len0 equal ${lx0}"
if "${dir} == 2" then    "variable len0 equal ${ly0}"
variable len0 equal ${ly0}
variable len0 equal 14.5828
if "${dir} == 3" then    "variable len0 equal ${lz0}"
if "${dir} == 4" then    "variable len0 equal ${lz0}"
if "${dir} == 5" then    "variable len0 equal ${lz0}"
if "${dir} == 6" then    "variable len0 equal ${ly0}"

# Reset box and simulation parameters

clear
package omp 8
WARNING: OpenMP support not enabled during compilation; using 1 thread only. (../fix_omp.cpp:116)
box tilt large

The 'box' command has been removed and will be ignored

read_restart restart.equil
Reading restart file ...
  restart file = 2 Aug 2023, LAMMPS = 2 Aug 2023
  restoring atom style atomic from restart
  triclinic box = (-9.11425 -7.2914 -7.2914) to (9.11425 7.2914 7.2914) with tilt (0 0 0)
  1 by 1 by 1 MPI processor grid
  pair style m3gnet stores no restart info
  320 atoms
  read_restart CPU = 0.002 seconds
include potential.mod
# NOTE: This script can be modified for different pair styles
# See in.elastic for more info.

# we must undefine any fix ave/* fix before using reset_timestep
if "$(is_defined(fix,avp))" then "unfix avp"
reset_timestep 0

variable elem string "Co Ni Cr Fe Mn"

#-------------------- Force field --------------------------------------------------------
pair_style      m3gnet /mnt/d/lammps/potentials/M3GNET
#pair_style      m3gnet/d3 /mnt/d/lammps/potentials/M3GNET

#pair_coeff      * *  MP-2021.2.8-EFS ${elem} # M3GNet <https://github.com/materialsvirtuallab/m3gnet> will be called
pair_coeff      * *  M3GNet-MP-2021.2.8-PES ${elem} # MatGL <https://github.com/materialsvirtuallab/matgl> will be called
pair_coeff      * *  M3GNet-MP-2021.2.8-PES Co Ni Cr Fe Mn 

# Setup neighbor style
neighbor 1.0 nsq
neigh_modify once no every 1 delay 0 check yes

# Setup output

fix avp all ave/time  ${nevery} ${nrepeat} ${nfreq} c_thermo_press mode vector
fix avp all ave/time  10 ${nrepeat} ${nfreq} c_thermo_press mode vector
fix avp all ave/time  10 10 ${nfreq} c_thermo_press mode vector
fix avp all ave/time  10 10 100 c_thermo_press mode vector
thermo		${nthermo}
thermo		100
thermo_style custom step temp pe press f_avp[1] f_avp[2] f_avp[3] f_avp[4] f_avp[5] f_avp[6]
thermo_modify norm no

# Setup MD

timestep ${timestep}
timestep 0.001
fix 4 all nve
if "${thermostat} == 1" then    "fix 5 all langevin ${temp} ${temp} ${tdamp} ${seed}"
fix 5 all langevin ${temp} ${temp} ${tdamp} ${seed}
fix 5 all langevin 2000 ${temp} ${tdamp} ${seed}
fix 5 all langevin 2000 2000 ${tdamp} ${seed}
fix 5 all langevin 2000 2000 0.01 ${seed}
fix 5 all langevin 2000 2000 0.01 123457



# Negative deformation

variable delta equal -${up}*${len0}
variable delta equal -0.02*${len0}
variable delta equal -0.02*14.5828
variable deltaxy equal -${up}*xy
variable deltaxy equal -0.02*xy
variable deltaxz equal -${up}*xz
variable deltaxz equal -0.02*xz
variable deltayz equal -${up}*yz
variable deltayz equal -0.02*yz
if "${dir} == 1" then    "change_box all x delta 0 ${delta} xy delta ${deltaxy} xz delta ${deltaxz} remap units box"
if "${dir} == 2" then    "change_box all y delta 0 ${delta} yz delta ${deltayz} remap units box"
change_box all y delta 0 ${delta} yz delta ${deltayz} remap units box
change_box all y delta 0 -0.291656 yz delta ${deltayz} remap units box
change_box all y delta 0 -0.291656 yz delta -0 remap units box
Changing box ...
  triclinic box = (-9.11425 -7.2914 -7.2914) to (9.11425 6.999744 7.2914) with tilt (0 0 0)
  triclinic box = (-9.11425 -7.2914 -7.2914) to (9.11425 6.999744 7.2914) with tilt (0 0 0)
if "${dir} == 3" then    "change_box all z delta 0 ${delta} remap units box"
if "${dir} == 4" then    "change_box all yz delta ${delta} remap units box"
if "${dir} == 5" then    "change_box all xz delta ${delta} remap units box"
if "${dir} == 6" then    "change_box all xy delta ${delta} remap units box"

# Run MD

run ${nequil}
run 1000
No /omp style for force computation currently active
Neighbor list info ...
  update: every = 1 steps, delay = 0 steps, check = yes
  max neighbors/atom: 2000, page size: 100000
  master list distance cutoff = 6
  ghost atom cutoff = 6
  1 neighbor lists, perpetual/occasional/extra = 1 0 0
  (1) pair m3gnet, perpetual
      attributes: full, newton on, omp
      pair build: full/nsq/omp
      stencil: none
      bin: none
Per MPI rank memory allocation (min/avg/max) = 3.102 | 3.102 | 3.102 Mbytes
   Step          Temp          PotEng         Press         f_avp[1]       f_avp[2]       f_avp[3]       f_avp[4]       f_avp[5]       f_avp[6]   
         0   1941.0126     -2475.1252      38976.459      0              0              0              0              0              0            
       100   1890.2895     -2476.6404      30235.544      20734.527      38979.587      44494.989     -8243.932       4186.8513     -657.00076    
       200   1906.042      -2472.9485      31396.308      19341.168      34271.131      43260.182     -11782.442      1159.7438     -2277.6323    
       300   1962.2059     -2477.3884      33623.49       29084.279      34047.755      42585.963     -9276.2383     -1272.3115     -123.96746    
       400   1943.3356     -2474.6104      32537.622      28481.788      26956.408      34285.889     -10002.63      -3116.5309     -254.84024    
       500   1954.1942     -2479.2705      26819.562      25809.879      23793.007      32041.823      1660.3256     -1493.4613     -1222.6218    
       600   2001.4601     -2478.3674      30653.957      24586.091      27949.897      34759.528      97.488433      2411.1161     -736.05652    
       700   1867.4911     -2474.8799      31556.725      28843.777      36674.796      40501.733     -4966.4104      1974.1919     -646.08115    
       800   2077.8726     -2468.3994      42620.135      39858.812      28212.025      35419.993      2271.7554     -6038.3111     -1241.7205    
       900   1957.3458     -2472.9932      35619.824      43566.954      34472.039      40690.925     -3985.3884     -1205.9194      503.01013    
      1000   1924.6956     -2474.251       35511.665      39562.249      28104.859      41742.006     -7809.3834      4007.7462      590.84124    
Loop time of 210.07 on 1 procs for 1000 steps with 320 atoms

Performance: 0.411 ns/day, 58.353 hours/ns, 4.760 timesteps/s, 1.523 katom-step/s
892.1% CPU use with 1 MPI tasks x no OpenMP threads

MPI task timing breakdown:
Section |  min time  |  avg time  |  max time  |%varavg| %total
---------------------------------------------------------------
Pair    | 210.01     | 210.01     | 210.01     |   0.0 | 99.97
Neigh   | 0.026181   | 0.026181   | 0.026181   |   0.0 |  0.01
Comm    | 0.0098678  | 0.0098678  | 0.0098678  |   0.0 |  0.00
Output  | 0.0019921  | 0.0019921  | 0.0019921  |   0.0 |  0.00
Modify  | 0.019847   | 0.019847   | 0.019847   |   0.0 |  0.01
Other   |            | 0.003218   |            |       |  0.00

Nlocal:            320 ave         320 max         320 min
Histogram: 1 0 0 0 0 0 0 0 0 0
Nghost:           1570 ave        1570 max        1570 min
Histogram: 1 0 0 0 0 0 0 0 0 0
Neighs:              0 ave           0 max           0 min
Histogram: 1 0 0 0 0 0 0 0 0 0
FullNghs:        23626 ave       23626 max       23626 min
Histogram: 1 0 0 0 0 0 0 0 0 0

Total # of neighbors = 23626
Ave neighs/atom = 73.83125
Neighbor list builds = 22
Dangerous builds = 0
include potential.mod
# NOTE: This script can be modified for different pair styles
# See in.elastic for more info.

# we must undefine any fix ave/* fix before using reset_timestep
if "$(is_defined(fix,avp))" then "unfix avp"
unfix avp
reset_timestep 0

variable elem string "Co Ni Cr Fe Mn"

#-------------------- Force field --------------------------------------------------------
pair_style      m3gnet /mnt/d/lammps/potentials/M3GNET
#pair_style      m3gnet/d3 /mnt/d/lammps/potentials/M3GNET

#pair_coeff      * *  MP-2021.2.8-EFS ${elem} # M3GNet <https://github.com/materialsvirtuallab/m3gnet> will be called
pair_coeff      * *  M3GNet-MP-2021.2.8-PES ${elem} # MatGL <https://github.com/materialsvirtuallab/matgl> will be called
pair_coeff      * *  M3GNet-MP-2021.2.8-PES Co Ni Cr Fe Mn 

# Setup neighbor style
neighbor 1.0 nsq
neigh_modify once no every 1 delay 0 check yes

# Setup output

fix avp all ave/time  ${nevery} ${nrepeat} ${nfreq} c_thermo_press mode vector
fix avp all ave/time  10 ${nrepeat} ${nfreq} c_thermo_press mode vector
fix avp all ave/time  10 10 ${nfreq} c_thermo_press mode vector
fix avp all ave/time  10 10 100 c_thermo_press mode vector
thermo		${nthermo}
thermo		100
thermo_style custom step temp pe press f_avp[1] f_avp[2] f_avp[3] f_avp[4] f_avp[5] f_avp[6]
WARNING: New thermo_style command, previous thermo_modify settings will be lost (../output.cpp:903)
thermo_modify norm no

# Setup MD

timestep ${timestep}
timestep 0.001
fix 4 all nve
if "${thermostat} == 1" then    "fix 5 all langevin ${temp} ${temp} ${tdamp} ${seed}"
fix 5 all langevin ${temp} ${temp} ${tdamp} ${seed}
fix 5 all langevin 2000 ${temp} ${tdamp} ${seed}
fix 5 all langevin 2000 2000 ${tdamp} ${seed}
fix 5 all langevin 2000 2000 0.01 ${seed}
fix 5 all langevin 2000 2000 0.01 123457


run ${nrun}
run 300
No /omp style for force computation currently active
Per MPI rank memory allocation (min/avg/max) = 3.102 | 3.102 | 3.102 Mbytes
   Step          Temp          PotEng         Press         f_avp[1]       f_avp[2]       f_avp[3]       f_avp[4]       f_avp[5]       f_avp[6]   
         0   1924.6956     -2474.2512      35511.313      0              0              0              0              0              0            
       100   1933.6769     -2475.6079      28053.148      27261.812      34933.832      41889.261     -3297.8418      3564.9656      2170.3305    
       200   1902.877      -2474.8604      31221.768      28140.618      32699.925      37139.961     -5266.8615      2756.5628      2922.509     
       300   1912.2653     -2476.6802      27494.689      28931.069      29432.693      39142.374     -1744.5889      728.28281     -1562.7663    
Loop time of 63.2852 on 1 procs for 300 steps with 320 atoms

Performance: 0.410 ns/day, 58.597 hours/ns, 4.740 timesteps/s, 1.517 katom-step/s
890.2% CPU use with 1 MPI tasks x no OpenMP threads

MPI task timing breakdown:
Section |  min time  |  avg time  |  max time  |%varavg| %total
---------------------------------------------------------------
Pair    | 63.267     | 63.267     | 63.267     |   0.0 | 99.97
Neigh   | 0.007639   | 0.007639   | 0.007639   |   0.0 |  0.01
Comm    | 0.0030153  | 0.0030153  | 0.0030153  |   0.0 |  0.00
Output  | 0.00061938 | 0.00061938 | 0.00061938 |   0.0 |  0.00
Modify  | 0.005997   | 0.005997   | 0.005997   |   0.0 |  0.01
Other   |            | 0.0009983  |            |       |  0.00

Nlocal:            320 ave         320 max         320 min
Histogram: 1 0 0 0 0 0 0 0 0 0
Nghost:           1573 ave        1573 max        1573 min
Histogram: 1 0 0 0 0 0 0 0 0 0
Neighs:              0 ave           0 max           0 min
Histogram: 1 0 0 0 0 0 0 0 0 0
FullNghs:        23648 ave       23648 max       23648 min
Histogram: 1 0 0 0 0 0 0 0 0 0

Total # of neighbors = 23648
Ave neighs/atom = 73.9
Neighbor list builds = 6
Dangerous builds = 0

# Obtain new stress tensor

variable pxx1 equal f_avp[1]
variable pyy1 equal f_avp[2]
variable pzz1 equal f_avp[3]
variable pxy1 equal f_avp[4]
variable pxz1 equal f_avp[5]
variable pyz1 equal f_avp[6]

# Compute elastic constant from pressure tensor

variable C1neg equal ${d1}
variable C1neg equal 161.771793371878
variable C2neg equal ${d2}
variable C2neg equal 126.822538975947
variable C3neg equal ${d3}
variable C3neg equal 211.655303636312
variable C4neg equal ${d4}
variable C4neg equal -1.7113184715411
variable C5neg equal ${d5}
variable C5neg equal -0.90904081830239
variable C6neg equal ${d6}
variable C6neg equal -1.61440084259485

# Reset box and simulation parameters

clear
package omp 8
WARNING: OpenMP support not enabled during compilation; using 1 thread only. (../fix_omp.cpp:116)
box tilt large

The 'box' command has been removed and will be ignored

read_restart restart.equil
Reading restart file ...
  restart file = 2 Aug 2023, LAMMPS = 2 Aug 2023
  restoring atom style atomic from restart
  triclinic box = (-9.11425 -7.2914 -7.2914) to (9.11425 7.2914 7.2914) with tilt (0 0 0)
  1 by 1 by 1 MPI processor grid
  pair style m3gnet stores no restart info
  320 atoms
  read_restart CPU = 0.004 seconds
include potential.mod
# NOTE: This script can be modified for different pair styles
# See in.elastic for more info.

# we must undefine any fix ave/* fix before using reset_timestep
if "$(is_defined(fix,avp))" then "unfix avp"
reset_timestep 0

variable elem string "Co Ni Cr Fe Mn"

#-------------------- Force field --------------------------------------------------------
pair_style      m3gnet /mnt/d/lammps/potentials/M3GNET
#pair_style      m3gnet/d3 /mnt/d/lammps/potentials/M3GNET

#pair_coeff      * *  MP-2021.2.8-EFS ${elem} # M3GNet <https://github.com/materialsvirtuallab/m3gnet> will be called
pair_coeff      * *  M3GNet-MP-2021.2.8-PES ${elem} # MatGL <https://github.com/materialsvirtuallab/matgl> will be called
pair_coeff      * *  M3GNet-MP-2021.2.8-PES Co Ni Cr Fe Mn 

# Setup neighbor style
neighbor 1.0 nsq
neigh_modify once no every 1 delay 0 check yes

# Setup output

fix avp all ave/time  ${nevery} ${nrepeat} ${nfreq} c_thermo_press mode vector
fix avp all ave/time  10 ${nrepeat} ${nfreq} c_thermo_press mode vector
fix avp all ave/time  10 10 ${nfreq} c_thermo_press mode vector
fix avp all ave/time  10 10 100 c_thermo_press mode vector
thermo		${nthermo}
thermo		100
thermo_style custom step temp pe press f_avp[1] f_avp[2] f_avp[3] f_avp[4] f_avp[5] f_avp[6]
thermo_modify norm no

# Setup MD

timestep ${timestep}
timestep 0.001
fix 4 all nve
if "${thermostat} == 1" then    "fix 5 all langevin ${temp} ${temp} ${tdamp} ${seed}"
fix 5 all langevin ${temp} ${temp} ${tdamp} ${seed}
fix 5 all langevin 2000 ${temp} ${tdamp} ${seed}
fix 5 all langevin 2000 2000 ${tdamp} ${seed}
fix 5 all langevin 2000 2000 0.01 ${seed}
fix 5 all langevin 2000 2000 0.01 123457



# Positive deformation

variable delta equal ${up}*${len0}
variable delta equal 0.02*${len0}
variable delta equal 0.02*14.5828
variable deltaxy equal ${up}*xy
variable deltaxy equal 0.02*xy
variable deltaxz equal ${up}*xz
variable deltaxz equal 0.02*xz
variable deltayz equal ${up}*yz
variable deltayz equal 0.02*yz
if "${dir} == 1" then    "change_box all x delta 0 ${delta} xy delta ${deltaxy} xz delta ${deltaxz} remap units box"
if "${dir} == 2" then    "change_box all y delta 0 ${delta} yz delta ${deltayz} remap units box"
change_box all y delta 0 ${delta} yz delta ${deltayz} remap units box
change_box all y delta 0 0.291656 yz delta ${deltayz} remap units box
change_box all y delta 0 0.291656 yz delta 0 remap units box
Changing box ...
  triclinic box = (-9.11425 -7.2914 -7.2914) to (9.11425 7.583056 7.2914) with tilt (0 0 0)
  triclinic box = (-9.11425 -7.2914 -7.2914) to (9.11425 7.583056 7.2914) with tilt (0 0 0)
if "${dir} == 3" then    "change_box all z delta 0 ${delta} remap units box"
if "${dir} == 4" then    "change_box all yz delta ${delta} remap units box"
if "${dir} == 5" then    "change_box all xz delta ${delta} remap units box"
if "${dir} == 6" then    "change_box all xy delta ${delta} remap units box"

# Run MD

run ${nequil}
run 1000
No /omp style for force computation currently active
Neighbor list info ...
  update: every = 1 steps, delay = 0 steps, check = yes
  max neighbors/atom: 2000, page size: 100000
  master list distance cutoff = 6
  ghost atom cutoff = 6
  1 neighbor lists, perpetual/occasional/extra = 1 0 0
  (1) pair m3gnet, perpetual
      attributes: full, newton on, omp
      pair build: full/nsq/omp
      stencil: none
      bin: none
Per MPI rank memory allocation (min/avg/max) = 3.102 | 3.102 | 3.102 Mbytes
   Step          Temp          PotEng         Press         f_avp[1]       f_avp[2]       f_avp[3]       f_avp[4]       f_avp[5]       f_avp[6]   
         0   1941.0126     -2473.406      -27781.517      0              0              0              0              0              0            
       100   1881.489      -2468.042      -23143.822     -28560.093     -27649.827     -9893.242      -7686.4271      4059.5004     -83.694867    
       200   1908.1731     -2463.3616     -20024.854     -29701.125     -23688.812     -9232.3826     -9960.1255      1758.1136     -2303.5701    
       300   1953.3974     -2466.7949     -15467.776     -19697.31      -20299.395     -7808.5491     -8574.508      -933.74543      848.96078    
       400   1933.6002     -2464.481      -18582.025     -20336.427     -26081.407     -14394.305     -9216.5886     -3099.1872     -718.70935    
       500   1955.9972     -2468.7026     -22705.3       -21337.526     -28605.483     -16770.521      2108.6856     -2287.5201     -1315.9816    
       600   2004.5686     -2467.167      -19194.194     -22168.593     -23178.983     -15259.617      204.43379      2455.1519     -1203.1243    
       700   1873.6562     -2463.6633     -16712.446     -18355.358     -15903.875     -11358.438     -2438.1827      1415.8657     -1451.4044    
       800   2081.576      -2457.3938     -6974.7551     -5004.9269     -19978.886     -14768.134      2398.0327     -5605.7805     -1099.7131    
       900   1946.6386     -2461.3047     -14565.293     -3009.6458     -16714.393     -10139.968     -2961.6477     -2943.9644      854.66443    
      1000   1907.5816     -2461.814      -14409.781     -9042.2869     -20466.828     -8707.5448     -7929.9586      1379.2557     -234.09923    
Loop time of 201.922 on 1 procs for 1000 steps with 320 atoms

Performance: 0.428 ns/day, 56.090 hours/ns, 4.952 timesteps/s, 1.585 katom-step/s
898.8% CPU use with 1 MPI tasks x no OpenMP threads

MPI task timing breakdown:
Section |  min time  |  avg time  |  max time  |%varavg| %total
---------------------------------------------------------------
Pair    | 201.86     | 201.86     | 201.86     |   0.0 | 99.97
Neigh   | 0.025637   | 0.025637   | 0.025637   |   0.0 |  0.01
Comm    | 0.010307   | 0.010307   | 0.010307   |   0.0 |  0.01
Output  | 0.0026059  | 0.0026059  | 0.0026059  |   0.0 |  0.00
Modify  | 0.019738   | 0.019738   | 0.019738   |   0.0 |  0.01
Other   |            | 0.003181   |            |       |  0.00

Nlocal:            320 ave         320 max         320 min
Histogram: 1 0 0 0 0 0 0 0 0 0
Nghost:           1544 ave        1544 max        1544 min
Histogram: 1 0 0 0 0 0 0 0 0 0
Neighs:              0 ave           0 max           0 min
Histogram: 1 0 0 0 0 0 0 0 0 0
FullNghs:        22830 ave       22830 max       22830 min
Histogram: 1 0 0 0 0 0 0 0 0 0

Total # of neighbors = 22830
Ave neighs/atom = 71.34375
Neighbor list builds = 22
Dangerous builds = 0
include potential.mod
# NOTE: This script can be modified for different pair styles
# See in.elastic for more info.

# we must undefine any fix ave/* fix before using reset_timestep
if "$(is_defined(fix,avp))" then "unfix avp"
unfix avp
reset_timestep 0

variable elem string "Co Ni Cr Fe Mn"

#-------------------- Force field --------------------------------------------------------
pair_style      m3gnet /mnt/d/lammps/potentials/M3GNET
#pair_style      m3gnet/d3 /mnt/d/lammps/potentials/M3GNET

#pair_coeff      * *  MP-2021.2.8-EFS ${elem} # M3GNet <https://github.com/materialsvirtuallab/m3gnet> will be called
pair_coeff      * *  M3GNet-MP-2021.2.8-PES ${elem} # MatGL <https://github.com/materialsvirtuallab/matgl> will be called
pair_coeff      * *  M3GNet-MP-2021.2.8-PES Co Ni Cr Fe Mn 

# Setup neighbor style
neighbor 1.0 nsq
neigh_modify once no every 1 delay 0 check yes

# Setup output

fix avp all ave/time  ${nevery} ${nrepeat} ${nfreq} c_thermo_press mode vector
fix avp all ave/time  10 ${nrepeat} ${nfreq} c_thermo_press mode vector
fix avp all ave/time  10 10 ${nfreq} c_thermo_press mode vector
fix avp all ave/time  10 10 100 c_thermo_press mode vector
thermo		${nthermo}
thermo		100
thermo_style custom step temp pe press f_avp[1] f_avp[2] f_avp[3] f_avp[4] f_avp[5] f_avp[6]
WARNING: New thermo_style command, previous thermo_modify settings will be lost (../output.cpp:903)
thermo_modify norm no

# Setup MD

timestep ${timestep}
timestep 0.001
fix 4 all nve
if "${thermostat} == 1" then    "fix 5 all langevin ${temp} ${temp} ${tdamp} ${seed}"
fix 5 all langevin ${temp} ${temp} ${tdamp} ${seed}
fix 5 all langevin 2000 ${temp} ${tdamp} ${seed}
fix 5 all langevin 2000 2000 ${tdamp} ${seed}
fix 5 all langevin 2000 2000 0.01 ${seed}
fix 5 all langevin 2000 2000 0.01 123457


run ${nrun}
run 300
No /omp style for force computation currently active
Per MPI rank memory allocation (min/avg/max) = 3.102 | 3.102 | 3.102 Mbytes
   Step          Temp          PotEng         Press         f_avp[1]       f_avp[2]       f_avp[3]       f_avp[4]       f_avp[5]       f_avp[6]   
         0   1907.5816     -2461.814      -14409.735      0              0              0              0              0              0            
       100   1881.6057     -2465.313      -16702.296     -8274.0856     -21987.146     -14296.407     -3423.4293      1790.0687     -1061.1495    
       200   1883.4392     -2462.6924     -15312.934     -11897.565     -22865.936     -20273.595     -1309.2382      3547.4588      525.87779    
       300   1893.9923     -2463.1375     -19547.346     -14280.911     -17283.3       -19165.931      677.9188      -20.698654     -3191.7796    
Loop time of 60.3395 on 1 procs for 300 steps with 320 atoms

Performance: 0.430 ns/day, 55.870 hours/ns, 4.972 timesteps/s, 1.591 katom-step/s
902.1% CPU use with 1 MPI tasks x no OpenMP threads

MPI task timing breakdown:
Section |  min time  |  avg time  |  max time  |%varavg| %total
---------------------------------------------------------------
Pair    | 60.321     | 60.321     | 60.321     |   0.0 | 99.97
Neigh   | 0.0079112  | 0.0079112  | 0.0079112  |   0.0 |  0.01
Comm    | 0.0029853  | 0.0029853  | 0.0029853  |   0.0 |  0.00
Output  | 0.00067298 | 0.00067298 | 0.00067298 |   0.0 |  0.00
Modify  | 0.0057945  | 0.0057945  | 0.0057945  |   0.0 |  0.01
Other   |            | 0.001021   |            |       |  0.00

Nlocal:            320 ave         320 max         320 min
Histogram: 1 0 0 0 0 0 0 0 0 0
Nghost:           1538 ave        1538 max        1538 min
Histogram: 1 0 0 0 0 0 0 0 0 0
Neighs:              0 ave           0 max           0 min
Histogram: 1 0 0 0 0 0 0 0 0 0
FullNghs:        22696 ave       22696 max       22696 min
Histogram: 1 0 0 0 0 0 0 0 0 0

Total # of neighbors = 22696
Ave neighs/atom = 70.925
Neighbor list builds = 7
Dangerous builds = 0

# Obtain new stress tensor

variable tmp equal pe
variable e1 equal ${tmp}
variable e1 equal -2463.13745117188
variable tmp equal press
variable p1 equal ${tmp}
variable p1 equal -19547.3458271332
variable tmp equal pxx
variable pxx1 equal ${tmp}
variable pxx1 equal -16707.933141132
variable tmp equal pyy
variable pyy1 equal ${tmp}
variable pyy1 equal -24451.4923085557
variable tmp equal pzz
variable pzz1 equal ${tmp}
variable pzz1 equal -17482.6120317119
variable tmp equal pxy
variable pxy1 equal ${tmp}
variable pxy1 equal -5133.46887376757
variable tmp equal pxz
variable pxz1 equal ${tmp}
variable pxz1 equal -895.265544561849
variable tmp equal pyz
variable pyz1 equal ${tmp}
variable pyz1 equal -4123.24099761348

# Compute elastic constant from pressure tensor

variable C1pos equal ${d1}
variable C1pos equal 66.4232178983662
variable C2pos equal ${d2}
variable C2pos equal 142.598389511857
variable C3pos equal ${d3}
variable C3pos equal 71.4696279824504
variable C4pos equal ${d4}
variable C4pos equal 14.5136919956828
variable C5pos equal ${d5}
variable C5pos equal 9.02678260755803
variable C6pos equal ${d6}
variable C6pos equal 18.5588004628913

# Combine positive and negative

variable C1${dir} equal 0.5*(${C1neg}+${C1pos})
variable C12 equal 0.5*(${C1neg}+${C1pos})
variable C12 equal 0.5*(161.771793371878+${C1pos})
variable C12 equal 0.5*(161.771793371878+66.4232178983662)
variable C2${dir} equal 0.5*(${C2neg}+${C2pos})
variable C22 equal 0.5*(${C2neg}+${C2pos})
variable C22 equal 0.5*(126.822538975947+${C2pos})
variable C22 equal 0.5*(126.822538975947+142.598389511857)
variable C3${dir} equal 0.5*(${C3neg}+${C3pos})
variable C32 equal 0.5*(${C3neg}+${C3pos})
variable C32 equal 0.5*(211.655303636312+${C3pos})
variable C32 equal 0.5*(211.655303636312+71.4696279824504)
variable C4${dir} equal 0.5*(${C4neg}+${C4pos})
variable C42 equal 0.5*(${C4neg}+${C4pos})
variable C42 equal 0.5*(-1.7113184715411+${C4pos})
variable C42 equal 0.5*(-1.7113184715411+14.5136919956828)
variable C5${dir} equal 0.5*(${C5neg}+${C5pos})
variable C52 equal 0.5*(${C5neg}+${C5pos})
variable C52 equal 0.5*(-0.90904081830239+${C5pos})
variable C52 equal 0.5*(-0.90904081830239+9.02678260755803)
variable C6${dir} equal 0.5*(${C6neg}+${C6pos})
variable C62 equal 0.5*(${C6neg}+${C6pos})
variable C62 equal 0.5*(-1.61440084259485+${C6pos})
variable C62 equal 0.5*(-1.61440084259485+18.5588004628913)

# Delete dir to make sure it is not reused

variable dir delete

# uzz Perturbation

variable dir equal 3
include displace.mod
# NOTE: This script should not need to be
# modified. See in.elastic for more info.
#
# Find which reference length to use

if "${dir} == 1" then    "variable len0 equal ${lx0}"
if "${dir} == 2" then    "variable len0 equal ${ly0}"
if "${dir} == 3" then    "variable len0 equal ${lz0}"
variable len0 equal ${lz0}
variable len0 equal 14.5828
if "${dir} == 4" then    "variable len0 equal ${lz0}"
if "${dir} == 5" then    "variable len0 equal ${lz0}"
if "${dir} == 6" then    "variable len0 equal ${ly0}"

# Reset box and simulation parameters

clear
package omp 8
WARNING: OpenMP support not enabled during compilation; using 1 thread only. (../fix_omp.cpp:116)
box tilt large

The 'box' command has been removed and will be ignored

read_restart restart.equil
Reading restart file ...
  restart file = 2 Aug 2023, LAMMPS = 2 Aug 2023
  restoring atom style atomic from restart
  triclinic box = (-9.11425 -7.2914 -7.2914) to (9.11425 7.2914 7.2914) with tilt (0 0 0)
  1 by 1 by 1 MPI processor grid
  pair style m3gnet stores no restart info
  320 atoms
  read_restart CPU = 0.004 seconds
include potential.mod
# NOTE: This script can be modified for different pair styles
# See in.elastic for more info.

# we must undefine any fix ave/* fix before using reset_timestep
if "$(is_defined(fix,avp))" then "unfix avp"
reset_timestep 0

variable elem string "Co Ni Cr Fe Mn"

#-------------------- Force field --------------------------------------------------------
pair_style      m3gnet /mnt/d/lammps/potentials/M3GNET
#pair_style      m3gnet/d3 /mnt/d/lammps/potentials/M3GNET

#pair_coeff      * *  MP-2021.2.8-EFS ${elem} # M3GNet <https://github.com/materialsvirtuallab/m3gnet> will be called
pair_coeff      * *  M3GNet-MP-2021.2.8-PES ${elem} # MatGL <https://github.com/materialsvirtuallab/matgl> will be called
pair_coeff      * *  M3GNet-MP-2021.2.8-PES Co Ni Cr Fe Mn 

# Setup neighbor style
neighbor 1.0 nsq
neigh_modify once no every 1 delay 0 check yes

# Setup output

fix avp all ave/time  ${nevery} ${nrepeat} ${nfreq} c_thermo_press mode vector
fix avp all ave/time  10 ${nrepeat} ${nfreq} c_thermo_press mode vector
fix avp all ave/time  10 10 ${nfreq} c_thermo_press mode vector
fix avp all ave/time  10 10 100 c_thermo_press mode vector
thermo		${nthermo}
thermo		100
thermo_style custom step temp pe press f_avp[1] f_avp[2] f_avp[3] f_avp[4] f_avp[5] f_avp[6]
thermo_modify norm no

# Setup MD

timestep ${timestep}
timestep 0.001
fix 4 all nve
if "${thermostat} == 1" then    "fix 5 all langevin ${temp} ${temp} ${tdamp} ${seed}"
fix 5 all langevin ${temp} ${temp} ${tdamp} ${seed}
fix 5 all langevin 2000 ${temp} ${tdamp} ${seed}
fix 5 all langevin 2000 2000 ${tdamp} ${seed}
fix 5 all langevin 2000 2000 0.01 ${seed}
fix 5 all langevin 2000 2000 0.01 123457



# Negative deformation

variable delta equal -${up}*${len0}
variable delta equal -0.02*${len0}
variable delta equal -0.02*14.5828
variable deltaxy equal -${up}*xy
variable deltaxy equal -0.02*xy
variable deltaxz equal -${up}*xz
variable deltaxz equal -0.02*xz
variable deltayz equal -${up}*yz
variable deltayz equal -0.02*yz
if "${dir} == 1" then    "change_box all x delta 0 ${delta} xy delta ${deltaxy} xz delta ${deltaxz} remap units box"
if "${dir} == 2" then    "change_box all y delta 0 ${delta} yz delta ${deltayz} remap units box"
if "${dir} == 3" then    "change_box all z delta 0 ${delta} remap units box"
change_box all z delta 0 ${delta} remap units box
change_box all z delta 0 -0.291656 remap units box
Changing box ...
  triclinic box = (-9.11425 -7.2914 -7.2914) to (9.11425 7.2914 6.999744) with tilt (0 0 0)
if "${dir} == 4" then    "change_box all yz delta ${delta} remap units box"
if "${dir} == 5" then    "change_box all xz delta ${delta} remap units box"
if "${dir} == 6" then    "change_box all xy delta ${delta} remap units box"

# Run MD

run ${nequil}
run 1000
No /omp style for force computation currently active
Neighbor list info ...
  update: every = 1 steps, delay = 0 steps, check = yes
  max neighbors/atom: 2000, page size: 100000
  master list distance cutoff = 6
  ghost atom cutoff = 6
  1 neighbor lists, perpetual/occasional/extra = 1 0 0
  (1) pair m3gnet, perpetual
      attributes: full, newton on, omp
      pair build: full/nsq/omp
      stencil: none
      bin: none
Per MPI rank memory allocation (min/avg/max) = 3.102 | 3.102 | 3.102 Mbytes
   Step          Temp          PotEng         Press         f_avp[1]       f_avp[2]       f_avp[3]       f_avp[4]       f_avp[5]       f_avp[6]   
         0   1941.0126     -2474.8049      41437.447      0              0              0              0              0              0            
       100   1889.437      -2476.0613      32280.955      22681.614      33449.238      53897.2       -8057.4419      4148.1574     -122.08647    
       200   1905.919      -2472.7498      32717.37       20829.794      31826.176      49076.124     -11793.551      1101.724      -1609.8194    
       300   1956.1362     -2476.7683      35501.226      30460.468      31978.032      47391.089     -9545.2668     -1340.4478      867.67384    
       400   1941.4303     -2474.3997      34491.567      30225.493      25725.877      38895.481     -9754.0814     -2913.4276      57.654847    
       500   1953.511      -2479.1428      28168.604      27818.978      21934.338      36290.325      2350.1286     -2420.0203     -625.6446     
       600   2000.0399     -2478.2695      31826.283      26123.495      26756.728      38223.587      536.23172      2114.2487     -328.18952    
       700   1873.248      -2474.908       32722.873      30862.956      36233.663      43422.154     -4282.3631      1466.5593     -949.5975     
       800   2078.4693     -2468.3105      44261.488      42620.823      29279.358      37232.685      1995.2257     -6609.952      -928.91543    
       900   1960.3008     -2472.7295      37390.825      46204.288      34716.384      41340.103     -4084.1845     -2566.8968      935.26272    
      1000   1926.2561     -2474.1013      36013.421      41285.604      28530.809      42444.009     -8261.0704      1328.4445      578.89162    
Loop time of 208.977 on 1 procs for 1000 steps with 320 atoms

Performance: 0.413 ns/day, 58.049 hours/ns, 4.785 timesteps/s, 1.531 katom-step/s
894.8% CPU use with 1 MPI tasks x no OpenMP threads

MPI task timing breakdown:
Section |  min time  |  avg time  |  max time  |%varavg| %total
---------------------------------------------------------------
Pair    | 208.92     | 208.92     | 208.92     |   0.0 | 99.97
Neigh   | 0.027066   | 0.027066   | 0.027066   |   0.0 |  0.01
Comm    | 0.0096366  | 0.0096366  | 0.0096366  |   0.0 |  0.00
Output  | 0.0015486  | 0.0015486  | 0.0015486  |   0.0 |  0.00
Modify  | 0.019536   | 0.019536   | 0.019536   |   0.0 |  0.01
Other   |            | 0.003277   |            |       |  0.00

Nlocal:            320 ave         320 max         320 min
Histogram: 1 0 0 0 0 0 0 0 0 0
Nghost:           1568 ave        1568 max        1568 min
Histogram: 1 0 0 0 0 0 0 0 0 0
Neighs:              0 ave           0 max           0 min
Histogram: 1 0 0 0 0 0 0 0 0 0
FullNghs:        23624 ave       23624 max       23624 min
Histogram: 1 0 0 0 0 0 0 0 0 0

Total # of neighbors = 23624
Ave neighs/atom = 73.825
Neighbor list builds = 22
Dangerous builds = 0
include potential.mod
# NOTE: This script can be modified for different pair styles
# See in.elastic for more info.

# we must undefine any fix ave/* fix before using reset_timestep
if "$(is_defined(fix,avp))" then "unfix avp"
unfix avp
reset_timestep 0

variable elem string "Co Ni Cr Fe Mn"

#-------------------- Force field --------------------------------------------------------
pair_style      m3gnet /mnt/d/lammps/potentials/M3GNET
#pair_style      m3gnet/d3 /mnt/d/lammps/potentials/M3GNET

#pair_coeff      * *  MP-2021.2.8-EFS ${elem} # M3GNet <https://github.com/materialsvirtuallab/m3gnet> will be called
pair_coeff      * *  M3GNet-MP-2021.2.8-PES ${elem} # MatGL <https://github.com/materialsvirtuallab/matgl> will be called
pair_coeff      * *  M3GNet-MP-2021.2.8-PES Co Ni Cr Fe Mn 

# Setup neighbor style
neighbor 1.0 nsq
neigh_modify once no every 1 delay 0 check yes

# Setup output

fix avp all ave/time  ${nevery} ${nrepeat} ${nfreq} c_thermo_press mode vector
fix avp all ave/time  10 ${nrepeat} ${nfreq} c_thermo_press mode vector
fix avp all ave/time  10 10 ${nfreq} c_thermo_press mode vector
fix avp all ave/time  10 10 100 c_thermo_press mode vector
thermo		${nthermo}
thermo		100
thermo_style custom step temp pe press f_avp[1] f_avp[2] f_avp[3] f_avp[4] f_avp[5] f_avp[6]
WARNING: New thermo_style command, previous thermo_modify settings will be lost (../output.cpp:903)
thermo_modify norm no

# Setup MD

timestep ${timestep}
timestep 0.001
fix 4 all nve
if "${thermostat} == 1" then    "fix 5 all langevin ${temp} ${temp} ${tdamp} ${seed}"
fix 5 all langevin ${temp} ${temp} ${tdamp} ${seed}
fix 5 all langevin 2000 ${temp} ${tdamp} ${seed}
fix 5 all langevin 2000 2000 ${tdamp} ${seed}
fix 5 all langevin 2000 2000 0.01 ${seed}
fix 5 all langevin 2000 2000 0.01 123457


run ${nrun}
run 300
No /omp style for force computation currently active
Per MPI rank memory allocation (min/avg/max) = 3.102 | 3.102 | 3.102 Mbytes
   Step          Temp          PotEng         Press         f_avp[1]       f_avp[2]       f_avp[3]       f_avp[4]       f_avp[5]       f_avp[6]   
         0   1926.2561     -2474.1021      36012.596      0              0              0              0              0              0            
       100   1946.5132     -2473.0161      37500.481      39153.377      35448.75       35001.041     -5390.6171     -1538.3572      3839.8754    
       200   1893.7112     -2473.3225      38132.894      37561.059      35758.251      38819.292     -1502.3204     -345.53306      3640.6264    
       300   1934.8565     -2475.1536      30707.387      36042.764      25805.935      39879.267     -1901.0661     -2799.4188     -1037.743     
Loop time of 63.5027 on 1 procs for 300 steps with 320 atoms

Performance: 0.408 ns/day, 58.799 hours/ns, 4.724 timesteps/s, 1.512 katom-step/s
889.5% CPU use with 1 MPI tasks x no OpenMP threads

MPI task timing breakdown:
Section |  min time  |  avg time  |  max time  |%varavg| %total
---------------------------------------------------------------
Pair    | 63.485     | 63.485     | 63.485     |   0.0 | 99.97
Neigh   | 0.0074971  | 0.0074971  | 0.0074971  |   0.0 |  0.01
Comm    | 0.0028969  | 0.0028969  | 0.0028969  |   0.0 |  0.00
Output  | 0.00056716 | 0.00056716 | 0.00056716 |   0.0 |  0.00
Modify  | 0.0058539  | 0.0058539  | 0.0058539  |   0.0 |  0.01
Other   |            | 0.000974   |            |       |  0.00

Nlocal:            320 ave         320 max         320 min
Histogram: 1 0 0 0 0 0 0 0 0 0
Nghost:           1566 ave        1566 max        1566 min
Histogram: 1 0 0 0 0 0 0 0 0 0
Neighs:              0 ave           0 max           0 min
Histogram: 1 0 0 0 0 0 0 0 0 0
FullNghs:        23602 ave       23602 max       23602 min
Histogram: 1 0 0 0 0 0 0 0 0 0

Total # of neighbors = 23602
Ave neighs/atom = 73.75625
Neighbor list builds = 6
Dangerous builds = 0

# Obtain new stress tensor

variable pxx1 equal f_avp[1]
variable pyy1 equal f_avp[2]
variable pzz1 equal f_avp[3]
variable pxy1 equal f_avp[4]
variable pxz1 equal f_avp[5]
variable pyz1 equal f_avp[6]

# Compute elastic constant from pressure tensor

variable C1neg equal ${d1}
variable C1neg equal 197.330269992795
variable C2neg equal ${d2}
variable C2neg equal 108.68874698116
variable C3neg equal ${d3}
variable C3neg equal 215.339768050528
variable C4neg equal ${d4}
variable C4neg equal 0.9137981503103
variable C5neg equal ${d5}
variable C5neg equal -18.5475491016378
variable C6neg equal ${d6}
variable C6neg equal -2.39678643731725

# Reset box and simulation parameters

clear
package omp 8
WARNING: OpenMP support not enabled during compilation; using 1 thread only. (../fix_omp.cpp:116)
box tilt large

The 'box' command has been removed and will be ignored

read_restart restart.equil
Reading restart file ...
  restart file = 2 Aug 2023, LAMMPS = 2 Aug 2023
  restoring atom style atomic from restart
  triclinic box = (-9.11425 -7.2914 -7.2914) to (9.11425 7.2914 7.2914) with tilt (0 0 0)
  1 by 1 by 1 MPI processor grid
  pair style m3gnet stores no restart info
  320 atoms
  read_restart CPU = 0.006 seconds
include potential.mod
# NOTE: This script can be modified for different pair styles
# See in.elastic for more info.

# we must undefine any fix ave/* fix before using reset_timestep
if "$(is_defined(fix,avp))" then "unfix avp"
reset_timestep 0

variable elem string "Co Ni Cr Fe Mn"

[...]
if "$(is_defined(fix,avp))" then "unfix avp"
reset_timestep 0

variable elem string "Co Ni Cr Fe Mn"

#-------------------- Force field --------------------------------------------------------
pair_style      m3gnet /mnt/d/lammps/potentials/M3GNET
#pair_style      m3gnet/d3 /mnt/d/lammps/potentials/M3GNET

#pair_coeff      * *  MP-2021.2.8-EFS ${elem} # M3GNet <https://github.com/materialsvirtuallab/m3gnet> will be called
pair_coeff      * *  M3GNet-MP-2021.2.8-PES ${elem} # MatGL <https://github.com/materialsvirtuallab/matgl> will be called
pair_coeff      * *  M3GNet-MP-2021.2.8-PES Co Ni Cr Fe Mn 

# Setup neighbor style
neighbor 1.0 nsq
neigh_modify once no every 1 delay 0 check yes

# Setup output

fix avp all ave/time  ${nevery} ${nrepeat} ${nfreq} c_thermo_press mode vector
fix avp all ave/time  10 ${nrepeat} ${nfreq} c_thermo_press mode vector
fix avp all ave/time  10 10 ${nfreq} c_thermo_press mode vector
fix avp all ave/time  10 10 100 c_thermo_press mode vector
thermo		${nthermo}
thermo		100
thermo_style custom step temp pe press f_avp[1] f_avp[2] f_avp[3] f_avp[4] f_avp[5] f_avp[6]
thermo_modify norm no

# Setup MD

timestep ${timestep}
timestep 0.001
fix 4 all nve
if "${thermostat} == 1" then    "fix 5 all langevin ${temp} ${temp} ${tdamp} ${seed}"
fix 5 all langevin ${temp} ${temp} ${tdamp} ${seed}
fix 5 all langevin 2000 ${temp} ${tdamp} ${seed}
fix 5 all langevin 2000 2000 ${tdamp} ${seed}
fix 5 all langevin 2000 2000 0.01 ${seed}
fix 5 all langevin 2000 2000 0.01 123457



# Positive deformation

variable delta equal ${up}*${len0}
variable delta equal 0.02*${len0}
variable delta equal 0.02*14.5828
variable deltaxy equal ${up}*xy
variable deltaxy equal 0.02*xy
variable deltaxz equal ${up}*xz
variable deltaxz equal 0.02*xz
variable deltayz equal ${up}*yz
variable deltayz equal 0.02*yz
if "${dir} == 1" then    "change_box all x delta 0 ${delta} xy delta ${deltaxy} xz delta ${deltaxz} remap units box"
if "${dir} == 2" then    "change_box all y delta 0 ${delta} yz delta ${deltayz} remap units box"
if "${dir} == 3" then    "change_box all z delta 0 ${delta} remap units box"
if "${dir} == 4" then    "change_box all yz delta ${delta} remap units box"
if "${dir} == 5" then    "change_box all xz delta ${delta} remap units box"
if "${dir} == 6" then    "change_box all xy delta ${delta} remap units box"
change_box all xy delta ${delta} remap units box
change_box all xy delta 0.291656 remap units box
Changing box ...
  triclinic box = (-9.11425 -7.2914 -7.2914) to (9.11425 7.2914 7.2914) with tilt (0.291656 0 0)

# Run MD

run ${nequil}
run 1000
No /omp style for force computation currently active
Neighbor list info ...
  update: every = 1 steps, delay = 0 steps, check = yes
  max neighbors/atom: 2000, page size: 100000
  master list distance cutoff = 6
  ghost atom cutoff = 6
  1 neighbor lists, perpetual/occasional/extra = 1 0 0
  (1) pair m3gnet, perpetual
      attributes: full, newton on, omp
      pair build: full/nsq/omp
      stencil: none
      bin: none
Per MPI rank memory allocation (min/avg/max) = 3.102 | 3.102 | 3.102 Mbytes
   Step          Temp          PotEng         Press         f_avp[1]       f_avp[2]       f_avp[3]       f_avp[4]       f_avp[5]       f_avp[6]   
         0   1941.0126     -2474.9158      3321.4384      0              0              0              0              0              0            
       100   1878.5529     -2472.1509      3404.7697     -3740.4292      5800.6056      16850.801     -7531.22        3131.1466     -11981.626    
       200   1908.07       -2467.842       8163.2143     -2088.7438      5851.9535      14935.049     -9181.3303      1771.3441     -12634.725    
       300   1940.8549     -2471.686       9294.4591      6955.3304      5983.6236      16339.365     -7011.54        1059.047      -8901.889     
       400   1948.8657     -2471.781       4392.8066      4685.9114      1295.1631      7105.5748     -7783.6416     -2393.1432     -7599.1516    
       500   1955.0764     -2475.2109     -1276.069       1328.0052     -323.78262      3426.0616     -763.75316     -3672.8873     -10782.521    
       600   1995.3129     -2471.4185      8980.1611      1585.6589      6261.9981      8893.3101     -3625.5789      824.14418     -10701.025    
       700   1870.1587     -2470.1577      5149.3526      8089.7378      9909.9054      14551.825     -7729.2852      168.37505     -12402.352    
       800   2105.0433     -2464.6479      17710.675      15104.891      4555.6048      10527.173      772.33467     -3717.5163     -9728.6014    
       900   1973.6167     -2468.884       9123.1229      13231.199      4804.504       17064.904     -2827.226      -3549.4351     -7767.3579    
      1000   1864.6793     -2468.2432      9466.428       11284.259      3718.0793      15146.604     -8322.784       221.39497     -10922.49     
Loop time of 206.817 on 1 procs for 1000 steps with 320 atoms

Performance: 0.418 ns/day, 57.449 hours/ns, 4.835 timesteps/s, 1.547 katom-step/s
894.8% CPU use with 1 MPI tasks x no OpenMP threads

MPI task timing breakdown:
Section |  min time  |  avg time  |  max time  |%varavg| %total
---------------------------------------------------------------
Pair    | 206.76     | 206.76     | 206.76     |   0.0 | 99.97
Neigh   | 0.02664    | 0.02664    | 0.02664    |   0.0 |  0.01
Comm    | 0.0095493  | 0.0095493  | 0.0095493  |   0.0 |  0.00
Output  | 0.0019906  | 0.0019906  | 0.0019906  |   0.0 |  0.00
Modify  | 0.019795   | 0.019795   | 0.019795   |   0.0 |  0.01
Other   |            | 0.003084   |            |       |  0.00

Nlocal:            320 ave         320 max         320 min
Histogram: 1 0 0 0 0 0 0 0 0 0
Nghost:           1560 ave        1560 max        1560 min
Histogram: 1 0 0 0 0 0 0 0 0 0
Neighs:              0 ave           0 max           0 min
Histogram: 1 0 0 0 0 0 0 0 0 0
FullNghs:        23152 ave       23152 max       23152 min
Histogram: 1 0 0 0 0 0 0 0 0 0

Total # of neighbors = 23152
Ave neighs/atom = 72.35
Neighbor list builds = 22
Dangerous builds = 0
include potential.mod
# NOTE: This script can be modified for different pair styles
# See in.elastic for more info.

# we must undefine any fix ave/* fix before using reset_timestep
if "$(is_defined(fix,avp))" then "unfix avp"
unfix avp
reset_timestep 0

variable elem string "Co Ni Cr Fe Mn"

#-------------------- Force field --------------------------------------------------------
pair_style      m3gnet /mnt/d/lammps/potentials/M3GNET
#pair_style      m3gnet/d3 /mnt/d/lammps/potentials/M3GNET

#pair_coeff      * *  MP-2021.2.8-EFS ${elem} # M3GNet <https://github.com/materialsvirtuallab/m3gnet> will be called
pair_coeff      * *  M3GNet-MP-2021.2.8-PES ${elem} # MatGL <https://github.com/materialsvirtuallab/matgl> will be called
pair_coeff      * *  M3GNet-MP-2021.2.8-PES Co Ni Cr Fe Mn 

# Setup neighbor style
neighbor 1.0 nsq
neigh_modify once no every 1 delay 0 check yes

# Setup output

fix avp all ave/time  ${nevery} ${nrepeat} ${nfreq} c_thermo_press mode vector
fix avp all ave/time  10 ${nrepeat} ${nfreq} c_thermo_press mode vector
fix avp all ave/time  10 10 ${nfreq} c_thermo_press mode vector
fix avp all ave/time  10 10 100 c_thermo_press mode vector
thermo		${nthermo}
thermo		100
thermo_style custom step temp pe press f_avp[1] f_avp[2] f_avp[3] f_avp[4] f_avp[5] f_avp[6]
WARNING: New thermo_style command, previous thermo_modify settings will be lost (../output.cpp:903)
thermo_modify norm no

# Setup MD

timestep ${timestep}
timestep 0.001
fix 4 all nve
if "${thermostat} == 1" then    "fix 5 all langevin ${temp} ${temp} ${tdamp} ${seed}"
fix 5 all langevin ${temp} ${temp} ${tdamp} ${seed}
fix 5 all langevin 2000 ${temp} ${tdamp} ${seed}
fix 5 all langevin 2000 2000 ${tdamp} ${seed}
fix 5 all langevin 2000 2000 0.01 ${seed}
fix 5 all langevin 2000 2000 0.01 123457


run ${nrun}
run 300
No /omp style for force computation currently active
Per MPI rank memory allocation (min/avg/max) = 3.102 | 3.102 | 3.102 Mbytes
   Step          Temp          PotEng         Press         f_avp[1]       f_avp[2]       f_avp[3]       f_avp[4]       f_avp[5]       f_avp[6]   
         0   1864.6793     -2468.2437      9466.0561      0              0              0              0              0              0            
       100   1888.6916     -2466.26        13859.019      13420.396      8511.095       14676.529     -3690.4269      923.581       -7775.4825    
       200   1925.1224     -2471.0105      5882.6131      8019.0039      6933.2734      13762.201     -3946.8125      192.29582     -11471.879    
       300   1903.4343     -2471.3262      2796.4801      4086.4854      4138.946       2143.2736     -8133.1131     -4555.8116     -13320.243    
Loop time of 61.6802 on 1 procs for 300 steps with 320 atoms

Performance: 0.420 ns/day, 57.111 hours/ns, 4.864 timesteps/s, 1.556 katom-step/s
895.0% CPU use with 1 MPI tasks x no OpenMP threads

MPI task timing breakdown:
Section |  min time  |  avg time  |  max time  |%varavg| %total
---------------------------------------------------------------
Pair    | 61.661     | 61.661     | 61.661     |   0.0 | 99.97
Neigh   | 0.0084967  | 0.0084967  | 0.0084967  |   0.0 |  0.01
Comm    | 0.0029566  | 0.0029566  | 0.0029566  |   0.0 |  0.00
Output  | 0.0006218  | 0.0006218  | 0.0006218  |   0.0 |  0.00
Modify  | 0.0059954  | 0.0059954  | 0.0059954  |   0.0 |  0.01
Other   |            | 0.0009645  |            |       |  0.00

Nlocal:            320 ave         320 max         320 min
Histogram: 1 0 0 0 0 0 0 0 0 0
Nghost:           1570 ave        1570 max        1570 min
Histogram: 1 0 0 0 0 0 0 0 0 0
Neighs:              0 ave           0 max           0 min
Histogram: 1 0 0 0 0 0 0 0 0 0
FullNghs:        23116 ave       23116 max       23116 min
Histogram: 1 0 0 0 0 0 0 0 0 0

Total # of neighbors = 23116
Ave neighs/atom = 72.2375
Neighbor list builds = 7
Dangerous builds = 0

# Obtain new stress tensor

variable tmp equal pe
variable e1 equal ${tmp}
variable e1 equal -2471.326171875
variable tmp equal press
variable p1 equal ${tmp}
variable p1 equal 2796.4800765352
variable tmp equal pxx
variable pxx1 equal ${tmp}
variable pxx1 equal 11040.0641842665
variable tmp equal pyy
variable pyy1 equal ${tmp}
variable pyy1 equal -2246.59184919913
variable tmp equal pzz
variable pzz1 equal ${tmp}
variable pzz1 equal -404.03210546176
variable tmp equal pxy
variable pxy1 equal ${tmp}
variable pxy1 equal -9798.75357393652
variable tmp equal pxz
variable pxz1 equal ${tmp}
variable pxz1 equal -6108.02685777906
variable tmp equal pyz
variable pyz1 equal ${tmp}
variable pyz1 equal -13087.2621056422

# Compute elastic constant from pressure tensor

variable C1pos equal ${d1}
variable C1pos equal -72.3167687286264
variable C2pos equal ${d2}
variable C2pos equal 31.5738872150745
variable C3pos equal ${d3}
variable C3pos equal -13.9232716488003
variable C4pos equal ${d4}
variable C4pos equal 59.3337975358264
variable C5pos equal ${d5}
variable C5pos equal 35.0905891736441
variable C6pos equal ${d6}
variable C6pos equal 41.8852239637361

# Combine positive and negative

variable C1${dir} equal 0.5*(${C1neg}+${C1pos})
variable C16 equal 0.5*(${C1neg}+${C1pos})
variable C16 equal 0.5*(86.8290011071123+${C1pos})
variable C16 equal 0.5*(86.8290011071123+-72.3167687286264)
variable C2${dir} equal 0.5*(${C2neg}+${C2pos})
variable C26 equal 0.5*(${C2neg}+${C2pos})
variable C26 equal 0.5*(-3.6920738895182+${C2pos})
variable C26 equal 0.5*(-3.6920738895182+31.5738872150745)
variable C3${dir} equal 0.5*(${C3neg}+${C3pos})
variable C36 equal 0.5*(${C3neg}+${C3pos})
variable C36 equal 0.5*(69.5304865262691+${C3pos})
variable C36 equal 0.5*(69.5304865262691+-13.9232716488003)
variable C4${dir} equal 0.5*(${C4neg}+${C4pos})
variable C46 equal 0.5*(${C4neg}+${C4pos})
variable C46 equal 0.5*(34.554452653274+${C4pos})
variable C46 equal 0.5*(34.554452653274+59.3337975358264)
variable C5${dir} equal 0.5*(${C5neg}+${C5pos})
variable C56 equal 0.5*(${C5neg}+${C5pos})
variable C56 equal 0.5*(-28.0372475573988+${C5pos})
variable C56 equal 0.5*(-28.0372475573988+35.0905891736441)
variable C6${dir} equal 0.5*(${C6neg}+${C6pos})
variable C66 equal 0.5*(${C6neg}+${C6pos})
variable C66 equal 0.5*(-7.29246233692525+${C6pos})
variable C66 equal 0.5*(-7.29246233692525+41.8852239637361)

# Delete dir to make sure it is not reused

variable dir delete

# Output final values

variable C11all equal ${C11}
variable C11all equal 82.7499730918366
variable C22all equal ${C22}
variable C22all equal 134.710464243902
variable C33all equal ${C33}
variable C33all equal 147.162580441283

variable C12all equal 0.5*(${C12}+${C21})
variable C12all equal 0.5*(114.097505635122+${C21})
variable C12all equal 0.5*(114.097505635122+158.951397660002)
variable C13all equal 0.5*(${C13}+${C31})
variable C13all equal 0.5*(146.004270551538+${C31})
variable C13all equal 0.5*(146.004270551538+120.532430516089)
variable C23all equal 0.5*(${C23}+${C32})
variable C23all equal 0.5*(130.821203433428+${C32})
variable C23all equal 0.5*(130.821203433428+141.562465809381)

variable C44all equal ${C44}
variable C44all equal -11.027901814012
variable C55all equal ${C55}
variable C55all equal 53.0758241345438
variable C66all equal ${C66}
variable C66all equal 17.2963808134054

variable C14all equal 0.5*(${C14}+${C41})
variable C14all equal 0.5*(1.94642829016805+${C41})
variable C14all equal 0.5*(1.94642829016805+6.43344304331879)
variable C15all equal 0.5*(${C15}+${C51})
variable C15all equal 0.5*(2.389531981125+${C51})
variable C15all equal 0.5*(2.389531981125+29.1176700060111)
variable C16all equal 0.5*(${C16}+${C61})
variable C16all equal 0.5*(7.25611618924295+${C61})
variable C16all equal 0.5*(7.25611618924295+-9.67927011955075)

variable C24all equal 0.5*(${C24}+${C42})
variable C24all equal 0.5*(56.746461753886+${C42})
variable C24all equal 0.5*(56.746461753886+6.40118676207085)
variable C25all equal 0.5*(${C25}+${C52})
variable C25all equal 0.5*(7.96795907129913+${C52})
variable C25all equal 0.5*(7.96795907129913+4.05887089462782)
variable C26all equal 0.5*(${C26}+${C62})
variable C26all equal 0.5*(13.9409066627782+${C62})
variable C26all equal 0.5*(13.9409066627782+8.47219981014822)

variable C34all equal 0.5*(${C34}+${C43})
variable C34all equal 0.5*(0.931179738546+${C43})
variable C34all equal 0.5*(0.931179738546+8.3465078534581)
variable C35all equal 0.5*(${C35}+${C53})
variable C35all equal 0.5*(-4.1496996457643+${C53})
variable C35all equal 0.5*(-4.1496996457643+-8.10241476184413)
variable C36all equal 0.5*(${C36}+${C63})
variable C36all equal 0.5*(27.8036074387344+${C63})
variable C36all equal 0.5*(27.8036074387344+23.0064330544189)

variable C45all equal 0.5*(${C45}+${C54})
variable C45all equal 0.5*(2.22210063790775+${C54})
variable C45all equal 0.5*(2.22210063790775+13.8108216742829)
variable C46all equal 0.5*(${C46}+${C64})
variable C46all equal 0.5*(46.9441250945502+${C64})
variable C46all equal 0.5*(46.9441250945502+41.5293159787904)
variable C56all equal 0.5*(${C56}+${C65})
variable C56all equal 0.5*(3.52667080812265+${C65})
variable C56all equal 0.5*(3.52667080812265+-4.3208747983323)

# Average moduli for cubic crystals

variable C11cubic equal (${C11all}+${C22all}+${C33all})/3.0
variable C11cubic equal (82.7499730918366+${C22all}+${C33all})/3.0
variable C11cubic equal (82.7499730918366+134.710464243902+${C33all})/3.0
variable C11cubic equal (82.7499730918366+134.710464243902+147.162580441283)/3.0
variable C12cubic equal (${C12all}+${C13all}+${C23all})/3.0
variable C12cubic equal (136.524451647562+${C13all}+${C23all})/3.0
variable C12cubic equal (136.524451647562+133.268350533814+${C23all})/3.0
variable C12cubic equal (136.524451647562+133.268350533814+136.191834621404)/3.0
variable C44cubic equal (${C44all}+${C55all}+${C66all})/3.0
variable C44cubic equal (-11.027901814012+${C55all}+${C66all})/3.0
variable C44cubic equal (-11.027901814012+53.0758241345438+${C66all})/3.0
variable C44cubic equal (-11.027901814012+53.0758241345438+17.2963808134054)/3.0

variable bulkmodulus equal (${C11cubic}+2*${C12cubic})/3.0
variable bulkmodulus equal (121.541005925674+2*${C12cubic})/3.0
variable bulkmodulus equal (121.541005925674+2*135.328212267593)/3.0
variable shearmodulus1 equal ${C44cubic}
variable shearmodulus1 equal 19.7814343779791
variable shearmodulus2 equal (${C11cubic}-${C12cubic})/2.0
variable shearmodulus2 equal (121.541005925674-${C12cubic})/2.0
variable shearmodulus2 equal (121.541005925674-135.328212267593)/2.0
variable poissonratio equal 1.0/(1.0+${C11cubic}/${C12cubic})
variable poissonratio equal 1.0/(1.0+121.541005925674/${C12cubic})
variable poissonratio equal 1.0/(1.0+121.541005925674/135.328212267593)

# For Stillinger-Weber silicon, the analytical results
# are known to be (E. R. Cowley, 1988):
#               C11 = 151.4 GPa
#               C12 = 76.4 GPa
#               C44 = 56.4 GPa

print "========================================="
=========================================
print "Components of the Elastic Constant Tensor"
Components of the Elastic Constant Tensor
print "========================================="
=========================================

print "Elastic Constant C11all = ${C11all} ${cunits}"
Elastic Constant C11all = 82.7499730918366 GPa
print "Elastic Constant C22all = ${C22all} ${cunits}"
Elastic Constant C22all = 134.710464243902 GPa
print "Elastic Constant C33all = ${C33all} ${cunits}"
Elastic Constant C33all = 147.162580441283 GPa

print "Elastic Constant C12all = ${C12all} ${cunits}"
Elastic Constant C12all = 136.524451647562 GPa
print "Elastic Constant C13all = ${C13all} ${cunits}"
Elastic Constant C13all = 133.268350533814 GPa
print "Elastic Constant C23all = ${C23all} ${cunits}"
Elastic Constant C23all = 136.191834621404 GPa

print "Elastic Constant C44all = ${C44all} ${cunits}"
Elastic Constant C44all = -11.027901814012 GPa
print "Elastic Constant C55all = ${C55all} ${cunits}"
Elastic Constant C55all = 53.0758241345438 GPa
print "Elastic Constant C66all = ${C66all} ${cunits}"
Elastic Constant C66all = 17.2963808134054 GPa

print "Elastic Constant C14all = ${C14all} ${cunits}"
Elastic Constant C14all = 4.18993566674342 GPa
print "Elastic Constant C15all = ${C15all} ${cunits}"
Elastic Constant C15all = 15.753600993568 GPa
print "Elastic Constant C16all = ${C16all} ${cunits}"
Elastic Constant C16all = -1.2115769651539 GPa

print "Elastic Constant C24all = ${C24all} ${cunits}"
Elastic Constant C24all = 31.5738242579784 GPa
print "Elastic Constant C25all = ${C25all} ${cunits}"
Elastic Constant C25all = 6.01341498296348 GPa
print "Elastic Constant C26all = ${C26all} ${cunits}"
Elastic Constant C26all = 11.2065532364632 GPa

print "Elastic Constant C34all = ${C34all} ${cunits}"
Elastic Constant C34all = 4.63884379600205 GPa
print "Elastic Constant C35all = ${C35all} ${cunits}"
Elastic Constant C35all = -6.12605720380422 GPa
print "Elastic Constant C36all = ${C36all} ${cunits}"
Elastic Constant C36all = 25.4050202465766 GPa

print "Elastic Constant C45all = ${C45all} ${cunits}"
Elastic Constant C45all = 8.01646115609532 GPa
print "Elastic Constant C46all = ${C46all} ${cunits}"
Elastic Constant C46all = 44.2367205366703 GPa
print "Elastic Constant C56all = ${C56all} ${cunits}"
Elastic Constant C56all = -0.397101995104825 GPa

print "========================================="
=========================================
print "Average properties for a cubic crystal"
Average properties for a cubic crystal
print "========================================="
=========================================

print "Bulk Modulus = ${bulkmodulus} ${cunits}"
Bulk Modulus = 130.732476820287 GPa
print "Shear Modulus 1 = ${shearmodulus1} ${cunits}"
Shear Modulus 1 = 19.7814343779791 GPa
print "Shear Modulus 2 = ${shearmodulus2} ${cunits}"
Shear Modulus 2 = -6.89360317095949 GPa
print "Poisson Ratio = ${poissonratio}"
Poisson Ratio = 0.526837015425386
Total wall time: 0:58:36
