LAMMPS (2 Aug 2023)
package omp 8
WARNING: OpenMP support not enabled during compilation; using 1 thread only. (../fix_omp.cpp:116)
# LAMMPS Input File for Grain Boundaries
#-------------------- Initialization -----------------------------------------------------
clear
package omp 8
WARNING: OpenMP support not enabled during compilation; using 1 thread only. (../fix_omp.cpp:116)
echo            both    # echoes each input script command to both log file and screen
#-----------------------------------------------------------------------------------------
units           metal   # determines units of all quantities used in the input file
atom_style      atomic
boundary        p p p   # periodic boundary condition

#-----------------------------------------------------------------------------------------
variable Tini equal 273+25   # [K] (Initial temperature)
variable Tfin equal 273+25   # [K] (Annealing temperature)

variable Pini index    1.0   # [bar] (Note 1.0 bar = 0.1 MPa)

variable Nout equal    100   # every 100 time steps to the specified file

#-------------------- Atom & Lattice description ----------------------------------------
lattice fcc 3.5101
Lattice spacing in x,y,z = 3.5101 3.5101 3.5101

variable xh index 12
variable yh index 12
variable zh index 6

region whole block 0 ${xh} -${xh} ${xh} 0 ${zh} units box
region whole block 0 12 -${xh} ${xh} 0 ${zh} units box
region whole block 0 12 -12 ${xh} 0 ${zh} units box
region whole block 0 12 -12 12 0 ${zh} units box
region whole block 0 12 -12 12 0 6 units box
create_box 2 whole
Created orthogonal box = (0 -12 0) to (12 12 6)
  1 by 1 by 1 MPI processor grid

region upper block 0 ${xh}  0 ${yh} 0 ${zh} units box
region upper block 0 12  0 ${yh} 0 ${zh} units box
region upper block 0 12  0 12 0 ${zh} units box
region upper block 0 12  0 12 0 6 units box
lattice fcc 3.5101 orient x 2 1 0 orient y 1 -2 0 orient z 0 0 -1
Lattice spacing in x,y,z = 4.7092933 4.7092933 3.5101
create_atoms 1 region upper
Created 104 atoms
  using lattice units in orthogonal box = (0 -12 0) to (12 12 6)
  create_atoms CPU = 0.000 seconds

region lower block 0 ${xh} -${yh} 0 0 ${zh} units box
region lower block 0 12 -${yh} 0 0 ${zh} units box
region lower block 0 12 -12 0 0 ${zh} units box
region lower block 0 12 -12 0 0 6 units box
lattice fcc 3.5101 orient x 1 2 0 orient y 2 -1 0 orient z 0 0 -1
Lattice spacing in x,y,z = 4.7092933 4.7092933 3.5101
create_atoms 2 region lower
Created 104 atoms
  using lattice units in orthogonal box = (0 -12 0) to (12 12 6)
  create_atoms CPU = 0.000 seconds

group upper type 1 # Fe in upper
104 atoms in group upper
group lower type 2 # Fe in lower
104 atoms in group lower

variable elem string "Fe Co"

mass 1 55.85 # Fe
mass 2 58.93 # Co

#-------------------- Force field --------------------------------------------------------
pair_style      m3gnet /mnt/d/lammps/potentials/M3GNET
#pair_style      m3gnet/d3 /mnt/d/lammps/potentials/M3GNET

#pair_coeff      * *  MP-2021.2.8-EFS ${elem} # M3GNet <https://github.com/materialsvirtuallab/m3gnet> will be called
pair_coeff      * *  M3GNet-MP-2021.2.8-PES ${elem} # MatGL <https://github.com/materialsvirtuallab/matgl> will be called
pair_coeff      * *  M3GNet-MP-2021.2.8-PES Fe Co 

#-------------------- Settings -----------------------------------------------------------
neighbor 2.0 bin
neigh_modify delay 10 check yes

timestep 0.0001  # 0.1 [fs] (Recommend 0.1-1.0 [fs]), sets the timestep for subsequent simulations

# ------------------- Displace atoms and delete overlapping atoms ------------------------
displace_atoms upper move 0 0 0 units lattice
Displacing atoms ...
delete_atoms overlap 0.35 lower upper
System init for delete_atoms ...
No /omp style for force computation currently active
Neighbor list info ...
  update: every = 1 steps, delay = 10 steps, check = yes
  max neighbors/atom: 2000, page size: 100000
  master list distance cutoff = 7
  ghost atom cutoff = 7
  binsize = 3.5, bins = 4 7 2
  2 neighbor lists, perpetual/occasional/extra = 1 1 0
  (1) command delete_atoms, occasional, copy from (2)
      attributes: full, newton on, omp
      pair build: copy
      stencil: none
      bin: none
  (2) pair m3gnet, perpetual
      attributes: full, newton on, omp
      pair build: full/bin/atomonly/omp
      stencil: full/bin/3d
      bin: standard
Deleted 8 atoms, new total = 200

#-------------------- Energy Minimization ------------------------------------------------
# 0 [K], structure optimization
thermo ${Nout}
thermo 100
thermo_style custom step temp pe etotal press vol fmax fnorm

fix             emin all box/relax aniso ${Pini}
fix             emin all box/relax aniso 1.0
min_style       cg
min_modify      dmax 0.2
min_modify      line quadratic
minimize        0.0 1.0e-8 10000 100000 # This condition is necessary to make the residual stress sufficiently small.
Switching to 'neigh_modify every 1 delay 0 check yes' setting during minimization
No /omp style for force computation currently active
Neighbor list info ...
  update: every = 1 steps, delay = 0 steps, check = yes
  max neighbors/atom: 2000, page size: 100000
  master list distance cutoff = 7
  ghost atom cutoff = 7
  binsize = 3.5, bins = 4 7 2
  1 neighbor lists, perpetual/occasional/extra = 1 0 0
  (1) pair m3gnet, perpetual
      attributes: full, newton on, omp
      pair build: full/bin/atomonly/omp
      stencil: full/bin/3d
      bin: standard
WARNING: Energy due to 3 extra global DOFs will be included in minimizer energies
 (../min.cpp:225)
Per MPI rank memory allocation (min/avg/max) = 4.289 | 4.289 | 4.289 Mbytes
   Step          Temp          PotEng         TotEng         Press          Volume          Fmax          Fnorm     
         0   0              2184.4121      2184.4121      3197415        1728           1160.3329      4599.9467    
       100   0              2071.0737      2071.0737      3013768.8      1759.5608      1122.8821      4506.5735    
       200   0              1962.455       1962.455       2836487.8      1791.5121      1082.5112      4265.223     
       300   0              1858.4994      1858.4994      2675489.5      1824.0607      1049.1174      4091.7037    
       400   0              1758.4647      1758.4647      2531558.9      1856.9939      1015.5662      3952.5607    
       500   0              1661.9432      1661.9432      2405249.7      1890.233       992.5625       3833.5305    
       600   0              1568.7421      1568.7421      2275405.1      1923.806       965.78479      3670.2576    
       700   0              1479.9         1479.9         2136179.4      1958.0109      904.18103      3456.9045    
       800   0              1395.9781      1395.9781      2011342.9      1992.8642      834.12439      3208.8162    
       900   0              1316.8087      1316.8087      1899915.6      2028.4963      770.4978       3039.6546    
      1000   0              1241.1295      1241.1295      1792601.3      2064.2677      703.72021      2943.4583    
      1100   0              1168.4618      1168.4618      1690907.2      2100.0472      692.56311      2866.6415    
      1200   0              1098.3248      1098.3248      1595450.1      2135.7904      660.79761      2804.7954    
      1300   0              1030.3822      1030.3822      1509389.9      2171.3881      660.10284      2766.459     
      1400   0              963.96619      963.96619      1437059.7      2206.5416      663.78992      2764.496     
      1500   0              899.24207      899.24207      1362621.5      2241.2894      659.70563      2718.5676    
      1600   0              836.17896      836.17896      1302155.2      2275.7374      650.49536      2679.5126    
      1700   0              774.89441      774.89441      1243248        2309.9948      645.51605      2624.0595    
      1800   0              715.14417      715.14417      1196934.3      2344.148       636.43359      2587.2432    
      1900   0              656.50513      656.50513      1158007.5      2378.2316      620.20862      2559.1477    
      2000   0              598.8634       598.8634       1113258.4      2412.0826      600.94672      2521.1691    
      2100   0              542.47766      542.47766      1070624.5      2445.801       587.7738       2478.5739    
      2200   0              487.31018      487.31018      1028434.2      2479.4736      579.3139       2429.6449    
      2300   0              433.42175      433.42175      988036.3       2513.1935      562.75342      2371.3358    
      2400   0              380.94104      380.94104      946683.03      2547.0407      542.78894      2306.7448    
      2500   0              329.86182      329.86182      908355.61      2581.0593      529.22668      2241.7542    
      2600   0              280.15259      280.15259      872498.95      2615.2846      516.12549      2180.6544    
      2700   0              231.70398      231.70398      840021.77      2649.732       501.45642      2124.9875    
      2800   0              184.39307      184.39307      808600.52      2684.263       484.98532      2077.2705    
      2900   0              138.22632      138.22632      777200.71      2718.8253      472.62503      2026.479     
      3000   0              93.314941      93.314941      744806.07      2753.4387      459.11322      1971.1902    
      3100   0              49.500732      49.500732      719794.14      2788.0213      452.70068      1935.6026    
      3200   0              6.6384277      6.6384277      692474.44      2822.5644      441.56763      1886.5395    
      3300   0             -35.055664     -35.055664      661632.74      2857.275       421.15952      1823.9648    
      3400   0             -75.430176     -75.430176      629839.45      2892.3689      398.20093      1750.3235    
      3500   0             -114.3584      -114.3584       596499.36      2928.0184      386.86395      1669.3724    
      3600   0             -151.79053     -151.79053      562120.38      2964.3813      374.15002      1584.6864    
      3700   0             -187.73492     -187.73492      527654.39      3001.5796      359.5307       1499.5929    
      3800   0             -222.20367     -222.20367      492626.91      3039.5944      343.88782      1417.9744    
      3900   0             -255.25507     -255.25507      459128.51      3078.3382      328.53131      1342.346     
      4000   0             -286.9256      -286.9256       425995.73      3117.6171      314.40665      1272.2094    
      4100   0             -317.25226     -317.25226      395870.35      3157.2622      300.57214      1206.6061    
      4200   0             -346.37695     -346.37695      371226.04      3197.1718      286.29437      1153.7444    
      4300   0             -374.51208     -374.51208      351339.17      3237.0977      272.23431      1110.8222    
      4400   0             -401.67279     -401.67279      331056.52      3277.0146      258.94705      1064.9212    
      4500   0             -427.95074     -427.95074      314053.5       3317.0024      247.3717       1027.4493    
      4600   0             -453.52863     -453.52863      301009.18      3356.8289      237.63106      1000.3342    
      4700   0             -478.4837      -478.4837       289986.17      3396.2618      229.02353      978.63056    
      4800   0             -502.83307     -502.83307      279819.55      3435.0955      220.83249      959.68381    
      4900   0             -526.62329     -526.62329      270462.89      3473.2551      212.71783      942.09049    
      5000   0             -549.87555     -549.87555      261732.51      3510.6907      205.30475      925.03516    
      5100   0             -572.61877     -572.61877      252072.56      3547.4299      199.75397      906.53727    
      5200   0             -594.82135     -594.82135      242986.01      3583.5641      195.03917      885.34332    
      5300   0             -616.44946     -616.44946      232984.96      3619.1469      190.23248      860.86647    
      5400   0             -637.44598     -637.44598      221682.15      3654.1815      185.89297      833.06637    
      5500   0             -657.81702     -657.81702      211680.91      3688.5799      181.82158      808.42786    
      5600   0             -677.58655     -677.58655      201578.15      3722.1663      176.14606      784.9166     
      5700   0             -696.73981     -696.73981      192725.68      3754.8799      168.85446      762.00166    
      5800   0             -715.28906     -715.28906      184112.02      3786.7077      160.98795      739.40003    
      5900   0             -733.25684     -733.25684      176081.8       3817.6239      155.79169      717.77626    
      6000   0             -750.67438     -750.67438      168698.77      3847.6284      151.09247      697.32757    
      6100   0             -767.55884     -767.55884      161672.31      3876.7297      146.61948      677.21511    
      6200   0             -783.93127     -783.93127      155068.68      3904.9291      143.18729      657.75119    
      6300   0             -799.82263     -799.82263      149276.62      3932.2553      139.95642      639.85763    
      6400   0             -815.27466     -815.27466      144100.13      3958.7469      136.85522      623.11551    
      6500   0             -830.30682     -830.30682      138976.05      3984.4072      133.69556      606.43148    
      6600   0             -844.91473     -844.91473      133535.03      4009.1524      130.3848       589.02155    
      6700   0             -859.09521     -859.09521      127961.69      4032.8732      126.86435      571.2735     
      6800   0             -872.85254     -872.85254      122439.61      4055.4969      123.0173       553.53566    
      6900   0             -886.20648     -886.20648      116860.8       4076.954       118.75285      535.7333     
      7000   0             -899.17236     -899.17236      111150.52      4097.1598      114.13986      517.54332    
      7100   0             -911.75995     -911.75995      105451.26      4116.0175      109.31944      499.47513    
      7200   0             -923.98816     -923.98816      99910.442      4133.5067      104.69725      481.62453    
      7300   0             -935.86023     -935.86023      94267.161      4149.5071      100.08716      463.77385    
      7400   0             -947.38782     -947.38782      89000.778      4164.0412      95.032043      445.83749    
      7500   0             -958.57959     -958.57959      83820.909      4177.0982      90.511429      427.80908    
      7600   0             -969.43665     -969.43665      78715.638      4188.6028      87.836624      409.82878    
      7700   0             -979.96295     -979.96295      73748.367      4198.4781      85.02179       392.0287     
      7800   0             -990.14984     -990.14984      68978.802      4206.6587      82.068283      374.51368    
      7900   0             -1000.0024     -1000.0024      64290.22       4213.0337      78.982948      357.47222    
      8000   0             -1009.5266     -1009.5266      60265.622      4217.6178      75.786514      341.0667     
      8100   0             -1018.7312     -1018.7312      56595.288      4220.3755      72.502205      325.39765    
      8200   0             -1027.6346     -1027.6346      53227.912      4221.1878      69.148544      310.36586    
      8300   0             -1036.2473     -1036.2473      50211.954      4219.9609      65.774002      295.93527    
      8400   0             -1044.5756     -1044.5756      47540.57       4216.6261      62.430061      282.1369     
      8500   0             -1052.6318     -1052.6318      45192.682      4211.1065      59.14584       268.97395    
      8600   0             -1060.4207     -1060.4207      43259.611      4203.4686      55.961899      256.42748    
      8700   0             -1067.9159     -1067.9159      41933.963      4194.172       52.889847      244.43652    
      8800   0             -1075.0817     -1075.0817      41036.024      4183.8625      49.904922      232.85891    
      8900   0             -1081.8986     -1081.8986      40243.227      4172.9174      46.990757      221.60701    
      9000   0             -1088.3711     -1088.3711      39546.499      4161.4537      44.161064      210.72381    
      9100   0             -1094.509      -1094.509       38910.262      4149.4751      41.451164      200.3627     
      9200   0             -1100.3164     -1100.3164      38492.599      4137.1535      38.911346      190.57097    
      9300   0             -1105.7891     -1105.7891      38270.119      4124.8174      37.347977      181.47568    
      9400   0             -1110.9374     -1110.9374      38177.802      4112.7128      35.953354      173.17026    
      9500   0             -1115.7837     -1115.7837      38208.491      4100.9285      34.680595      165.67503    
      9600   0             -1120.3604     -1120.3604      38313.3        4089.391       33.508705      158.91718    
      9700   0             -1124.6941     -1124.6941      38428.897      4078.0559      32.417385      152.76803    
      9800   0             -1128.8091     -1128.8091      38591.433      4066.9236      31.392956      147.09628    
      9900   0             -1132.724      -1132.724       38834.174      4056.0937      30.438967      141.81708    
     10000   0             -1136.4556     -1136.4556      39013.606      4045.7219      29.559731      136.89089    
Loop time of 1224.33 on 1 procs for 10000 steps with 200 atoms

932.6% CPU use with 1 MPI tasks x no OpenMP threads

Minimization stats:
  Stopping criterion = max iterations
  Energy initial, next-to-last, final = 
        2184.412109375  -1136.41762071118   -1136.4541197979
  Force two-norm initial, final = 8068.7597 236.21591
  Force max component initial, final = 5658.1396 153.16978
  Final line search alpha, max atom move = 6.5288601e-07 0.00010000241
  Iterations, force evaluations = 10000 10000

MPI task timing breakdown:
Section |  min time  |  avg time  |  max time  |%varavg| %total
---------------------------------------------------------------
Pair    | 1223.9     | 1223.9     | 1223.9     |   0.0 | 99.97
Neigh   | 0.011809   | 0.011809   | 0.011809   |   0.0 |  0.00
Comm    | 0.09525    | 0.09525    | 0.09525    |   0.0 |  0.01
Output  | 0.014833   | 0.014833   | 0.014833   |   0.0 |  0.00
Modify  | 0.019992   | 0.019992   | 0.019992   |   0.0 |  0.00
Other   |            | 0.2645     |            |       |  0.02

Nlocal:            200 ave         200 max         200 min
Histogram: 1 0 0 0 0 0 0 0 0 0
Nghost:           1450 ave        1450 max        1450 min
Histogram: 1 0 0 0 0 0 0 0 0 0
Neighs:              0 ave           0 max           0 min
Histogram: 1 0 0 0 0 0 0 0 0 0
FullNghs:        13602 ave       13602 max       13602 min
Histogram: 1 0 0 0 0 0 0 0 0 0

Total # of neighbors = 13602
Ave neighs/atom = 68.01
Neighbor list builds = 24
Dangerous builds = 0
unfix           emin

#-------------------- Settings -----------------------------------------------------------
reset_timestep 0

compute csym all centro/atom fcc

# Store final cell length for strain calculations
variable tmp equal "ly"
variable L0 equal ${tmp}
variable L0 equal 48.0000000000151
print "Initial Length, L0: ${L0}"
Initial Length, L0: 48.0000000000151

# Output strain and stress info to file
# for units metal, pressure is in [bars] = 100 [kPa] = 1/10000 [GPa]
# p2, p3, p4 are in GPa
variable strain equal "(ly - v_L0)/v_L0"
variable p1 equal "v_strain"
variable p2 equal "-pxx/10000"
variable p3 equal "-pyy/10000"
variable p4 equal "-pzz/10000"
fix def1 all ave/time 1 10 ${Nout} v_p1 v_p2 v_p3 v_p4 ave one file tensile.txt
fix def1 all ave/time 1 10 100 v_p1 v_p2 v_p3 v_p4 ave one file tensile.txt

thermo ${Nout}
thermo 100
thermo_style custom step temp etotal lx lz ly pyy v_strain v_p3

#---------- output file settings -------------------------
dump            d1 all cfg ${Nout} cfg/run.*.cfg mass type xs ys zs c_csym id type vx vy vz fx fy fz
dump            d1 all cfg 100 cfg/run.*.cfg mass type xs ys zs c_csym id type vx vy vz fx fy fz
dump_modify     d1 element ${elem}
dump_modify     d1 element Fe Co
#---------------------------------------------------------

velocity all create ${Tini} 12345 mom yes rot no # sets the velocity of a group of atoms
velocity all create 298 12345 mom yes rot no 

#-------------------- Run the simulation -------------------------------------------------
variable  srate equal 1.0e9
variable srate1 equal "v_srate/1.0e12"

#fix f1 all npt temp ${Tini} ${Tfin} $(1000*dt) x ${Pini} ${Pini} $(1000*dt) z ${Pini} ${Pini} $(1000*dt) drag 1.0
fix f1 all nvt temp ${Tini} ${Tfin} $(20*dt)
fix f1 all nvt temp 298 ${Tfin} $(20*dt)
fix f1 all nvt temp 298 298 $(20*dt)
fix f1 all nvt temp 298 298 0.0020000000000000000416
fix f2 all deform 1 y erate ${srate1} units box remap v
fix f2 all deform 1 y erate 0.001 units box remap v

run             20000 # 2 ps
No /omp style for force computation currently active
Neighbor list info ...
  update: every = 1 steps, delay = 10 steps, check = yes
  max neighbors/atom: 2000, page size: 100000
  master list distance cutoff = 7
  ghost atom cutoff = 7
  binsize = 3.5, bins = 3 14 3
  2 neighbor lists, perpetual/occasional/extra = 1 1 0
  (1) pair m3gnet, perpetual
      attributes: full, newton on, omp
      pair build: full/bin/atomonly/omp
      stencil: full/bin/3d
      bin: standard
  (2) compute centro/atom, occasional, copy from (1)
      attributes: full, newton on, omp
      pair build: copy
      stencil: none
      bin: none
Per MPI rank memory allocation (min/avg/max) = 3.153 | 3.153 | 3.153 Mbytes
   Step          Temp          TotEng           Lx             Lz             Ly            Pyy          v_strain         v_p3     
         0   298           -1128.7902      8.9961015      9.3691554      48             123276.43      4.4408921e-16 -12.327643    
       100   506.69966     -1176.0185      8.9961015      9.3691554      48.00048       54379.639      1e-05         -5.4379639    
       200   325.59002     -1203.7947      8.9961015      9.3691554      48.00096       16515.242      2e-05         -1.6515242    
       300   305.99074     -1217.2795      8.9961015      9.3691554      48.00144      -5137.6226      3e-05          0.51376226   
       400   301.74833     -1226.3988      8.9961015      9.3691554      48.00192      -25912.812      4e-05          2.5912812    
       500   301.33685     -1233.6542      8.9961015      9.3691554      48.0024       -44367.18       5e-05          4.436718     
       600   300.52355     -1240.1661      8.9961015      9.3691554      48.00288      -56706.946      6e-05          5.6706946    
       700   300.35824     -1246.106       8.9961015      9.3691554      48.00336      -64951.017      7e-05          6.4951017    
       800   299.36235     -1251.3947      8.9961015      9.3691554      48.00384      -74982.362      8e-05          7.4982362    
       900   299.40965     -1255.9541      8.9961015      9.3691554      48.00432      -83720.175      9e-05          8.3720175    
      1000   300.0933      -1260.0767      8.9961015      9.3691554      48.0048       -92050.76       0.0001         9.205076     
      1100   308.67464     -1263.7861      8.9961015      9.3691554      48.00528      -98294.267      0.00011        9.8294267    
      1200   310.38751     -1267.6825      8.9961015      9.3691554      48.00576      -103241.03      0.00012        10.324103    
      1300   312.80406     -1271.42        8.9961015      9.3691554      48.00624      -105663.36      0.00013        10.566336    
      1400   311.40412     -1275.1503      8.9961015      9.3691554      48.00672      -105868.81      0.00014        10.586881    
      1500   311.41378     -1278.817       8.9961015      9.3691554      48.0072       -105663.34      0.00015        10.566334    
      1600   310.82617     -1282.4117      8.9961015      9.3691554      48.00768      -104797.22      0.00016        10.479722    
      1700   309.97022     -1285.8126      8.9961015      9.3691554      48.00816      -103912.53      0.00017        10.391253    
      1800   308.80824     -1288.9752      8.9961015      9.3691554      48.00864      -102311.74      0.00018        10.231174    
      1900   308.28901     -1291.8495      8.9961015      9.3691554      48.00912      -100570.41      0.00019        10.057041    
      2000   309.41593     -1294.6324      8.9961015      9.3691554      48.0096       -99247.113      0.0002         9.9247113    
      2100   310.68176     -1297.7438      8.9961015      9.3691554      48.01008      -98808.901      0.00021        9.8808901    
      2200   310.70445     -1301.1074      8.9961015      9.3691554      48.01056      -99365.882      0.00022        9.9365882    
      2300   310.8555      -1304.5276      8.9961015      9.3691554      48.01104      -100073.08      0.00023        10.007308    
      2400   310.90078     -1307.9757      8.9961015      9.3691554      48.01152      -100539.11      0.00024        10.053911    
      2500   310.78168     -1311.425       8.9961015      9.3691554      48.012        -100134.99      0.00025        10.013499    
      2600   310.35881     -1314.8395      8.9961015      9.3691554      48.01248      -98981.401      0.00026        9.8981401    
      2700   310.14964     -1318.151       8.9961015      9.3691554      48.01296      -97367.854      0.00027        9.7367854    
      2800   310.17219     -1321.393       8.9961015      9.3691554      48.01344      -95785.341      0.00028        9.5785341    
      2900   310.40589     -1324.6647      8.9961015      9.3691554      48.01392      -94540.672      0.00029        9.4540672    
      3000   309.85627     -1327.9596      8.9961015      9.3691554      48.0144       -93616.113      0.0003         9.3616113    
      3100   309.33417     -1331.1119      8.9961015      9.3691554      48.01488      -92467.073      0.00031        9.2467073    
      3200   308.24847     -1334.0852      8.9961015      9.3691554      48.01536      -90817.211      0.00032        9.0817211    
      3300   308.11421     -1336.8165      8.9961015      9.3691554      48.01584      -89297.813      0.00033        8.9297813    
      3400   305.01758     -1339.3072      8.9961015      9.3691554      48.01632      -87625.893      0.00034        8.7625893    
      3500   305.56459     -1341.2371      8.9961015      9.3691554      48.0168       -85495.227      0.00035        8.5495227    
      3600   307.73356     -1343.5173      8.9961015      9.3691554      48.01728      -83410.728      0.00036        8.3410728    
      3700   307.75866     -1346.2776      8.9961015      9.3691554      48.01776      -81293.34       0.00037        8.129334     
      3800   305.95238     -1348.7637      8.9961015      9.3691554      48.01824      -79797.151      0.00038        7.9797151    
      3900   304.9219      -1350.7056      8.9961015      9.3691554      48.01872      -78165.565      0.00039        7.8165565    
      4000   305.88596     -1352.4856      8.9961015      9.3691554      48.0192       -76515.934      0.0004         7.6515934    
      4100   306.99889     -1354.5748      8.9961015      9.3691554      48.01968      -75196.109      0.00041        7.5196109    
      4200   306.19828     -1356.8496      8.9961015      9.3691554      48.02016      -74900.63       0.00042        7.490063     
      4300   306.22495     -1359.0065      8.9961015      9.3691554      48.02064      -74677.43       0.00043        7.467743     
      4400   304.22831     -1361.0648      8.9961015      9.3691554      48.02112      -73893.175      0.00044        7.3893175    
      4500   303.72442     -1362.7117      8.9961015      9.3691554      48.0216       -73609.585      0.00045        7.3609585    
      4600   303.97227     -1364.2793      8.9961015      9.3691554      48.02208      -73068.931      0.00046        7.3068931    
      4700   303.27357     -1366.1045      8.9961015      9.3691554      48.02256      -72127.306      0.00047        7.2127306    
      4800   304.32623     -1368.1227      8.9961015      9.3691554      48.02304      -72292.523      0.00048        7.2292523    
      4900   303.96797     -1370.0579      8.9961015      9.3691554      48.02352      -73408.944      0.00049        7.3408944    
      5000   302.37367     -1371.6978      8.9961015      9.3691554      48.024        -72837.866      0.0005         7.2837866    
      5100   299.0169      -1373.1876      8.9961015      9.3691554      48.02448      -71946.41       0.00051        7.194641     
      5200   290.1722      -1374.9108      8.9961015      9.3691554      48.02496      -71299.466      0.00052        7.1299466    
      5300   291.96867     -1376.5449      8.9961015      9.3691554      48.02544      -71616.043      0.00053        7.1616043    
      5400   293.31781     -1378.0592      8.9961015      9.3691554      48.02592      -72373.335      0.00054        7.2373335    
      5500   295.1765      -1379.4108      8.9961015      9.3691554      48.0264       -72300.85       0.00055        7.230085     
      5600   290.8713      -1381.214       8.9961015      9.3691554      48.02688      -72014.125      0.00056        7.2014125    
      5700   312.5462      -1382.2588      8.9961015      9.3691554      48.02736      -71274.895      0.00057        7.1274895    
      5800   303.6188      -1383.7816      8.9961015      9.3691554      48.02784      -70306.12       0.00058        7.030612     
      5900   287.58508     -1385.3359      8.9961015      9.3691554      48.02832      -69474.624      0.00059        6.9474624    
      6000   295.67812     -1386.5101      8.9961015      9.3691554      48.0288       -68737.336      0.0006         6.8737336    
      6100   301.62615     -1387.6683      8.9961015      9.3691554      48.02928      -68597.356      0.00061        6.8597356    
      6200   334.51732     -1387.8883      8.9961015      9.3691554      48.02976      -67960.507      0.00062        6.7960507    
      6300   283.83166     -1390.3018      8.9961015      9.3691554      48.03024      -67811.428      0.00063        6.7811428    
      6400   292.14166     -1391.3537      8.9961015      9.3691554      48.03072      -67131.676      0.00064        6.7131676    
      6500   322.33954     -1391.8459      8.9961015      9.3691554      48.0312       -67035.169      0.00065        6.7035169    
      6600   293.81641     -1393.8329      8.9961015      9.3691554      48.03168      -67374.413      0.00066        6.7374413    
      6700   273.53094     -1395.5047      8.9961015      9.3691554      48.03216      -67361.759      0.00067        6.7361759    
      6800   301.59214     -1395.8677      8.9961015      9.3691554      48.03264      -66461.209      0.00068        6.6461209    
      6900   327.85361     -1396.1999      8.9961015      9.3691554      48.03312      -65956.364      0.00069        6.5956364    
      7000   302.03402     -1397.7843      8.9961015      9.3691554      48.0336       -66059.982      0.0007         6.6059982    
      7100   282.40219     -1398.9819      8.9961015      9.3691554      48.03408      -66213.883      0.00071        6.6213883    
      7200   279.80396     -1399.6945      8.9961015      9.3691554      48.03456      -66640.85       0.00072        6.664085     
      7300   289.60863     -1400.2914      8.9961015      9.3691554      48.03504      -67625.042      0.00073        6.7625042    
      7400   295.49398     -1400.8058      8.9961015      9.3691554      48.03552      -68141.582      0.00074        6.8141582    
      7500   320.02083     -1400.7891      8.9961015      9.3691554      48.036        -69066.749      0.00075        6.9066749    
      7600   304.61842     -1401.9124      8.9961015      9.3691554      48.03648      -70464.889      0.00076        7.0464889    
      7700   298.02882     -1402.8007      8.9961015      9.3691554      48.03696      -71611.325      0.00077        7.1611325    
      7800   294.56894     -1403.659       8.9961015      9.3691554      48.03744      -71359.32       0.00078        7.135932     
      7900   279.92852     -1404.7917      8.9961015      9.3691554      48.03792      -70107.19       0.00079        7.010719     
      8000   300.72339     -1405.0154      8.9961015      9.3691554      48.0384       -68095.809      0.0008         6.8095809    
      8100   325.29063     -1405.2         8.9961015      9.3691554      48.03888      -65906.348      0.00081        6.5906348    
      8200   272.5844      -1407.4255      8.9961015      9.3691554      48.03936      -64066.57       0.00082        6.406657     
      8300   293.03289     -1407.7505      8.9961015      9.3691554      48.03984      -61810.426      0.00083        6.1810426    
      8400   280.12181     -1408.8305      8.9961015      9.3691554      48.04032      -60225.386      0.00084        6.0225386    
      8500   290.68698     -1409.2666      8.9961015      9.3691554      48.0408       -59818.716      0.00085        5.9818716    
      8600   309.34274     -1409.5189      8.9961015      9.3691554      48.04128      -59981.503      0.00086        5.9981503    
      8700   307.19333     -1410.3717      8.9961015      9.3691554      48.04176      -60438.108      0.00087        6.0438108    
      8800   328.15842     -1410.7039      8.9961015      9.3691554      48.04224      -60818.338      0.00088        6.0818338    
      8900   283.44727     -1412.701       8.9961015      9.3691554      48.04272      -61623.477      0.00089        6.1623477    
      9000   297.93156     -1413.081       8.9961015      9.3691554      48.0432       -61851.942      0.0009         6.1851942    
      9100   311.4816      -1413.3948      8.9961015      9.3691554      48.04368      -61906.695      0.00091        6.1906695    
      9200   304.0235      -1414.2508      8.9961015      9.3691554      48.04416      -62189.228      0.00092        6.2189228    
      9300   304.76794     -1414.842       8.9961015      9.3691554      48.04464      -62356.384      0.00093        6.2356384    
      9400   298.01899     -1415.5161      8.9961015      9.3691554      48.04512      -62129.267      0.00094        6.2129267    
      9500   281.66803     -1416.4408      8.9961015      9.3691554      48.0456       -61796.04       0.00095        6.179604     
      9600   292.05266     -1416.7786      8.9961015      9.3691554      48.04608      -61570.492      0.00096        6.1570492    
      9700   291.1828      -1417.4712      8.9961015      9.3691554      48.04656      -61924.78       0.00097        6.192478     
      9800   306.03333     -1417.773       8.9961015      9.3691554      48.04704      -62451.404      0.00098        6.2451404    
      9900   321.13253     -1417.9542      8.9961015      9.3691554      48.04752      -62831.99       0.00099        6.283199     
     10000   303.3151      -1418.7794      8.9961015      9.3691554      48.048        -62668.474      0.001          6.2668474    
     10100   291.42519     -1419.4591      8.9961015      9.3691554      48.04848      -62052.436      0.00101        6.2052436    
     10200   288.64262     -1420.0956      8.9961015      9.3691554      48.04896      -60930.666      0.00102        6.0930666    
     10300   294.48313     -1420.5473      8.9961015      9.3691554      48.04944      -59404.724      0.00103        5.9404724    
     10400   291.91525     -1421.0292      8.9961015      9.3691554      48.04992      -57709.871      0.00104        5.7709871    
     10500   304.70854     -1420.9125      8.9961015      9.3691554      48.0504       -56140.913      0.00105        5.6140913    
     10600   309.53893     -1421.0388      8.9961015      9.3691554      48.05088      -55049.082      0.00106        5.5049082    
     10700   323.25354     -1421.1458      8.9961015      9.3691554      48.05136      -54242.59       0.00107        5.424259     
     10800   309.70191     -1421.7576      8.9961015      9.3691554      48.05184      -53001.591      0.00108        5.3001591    
     10900   271.32576     -1422.9999      8.9961015      9.3691554      48.05232      -51771.761      0.00109        5.1771761    
     11000   272.30428     -1423.4527      8.9961015      9.3691554      48.0528       -50867.099      0.0011         5.0867099    
     11100   283.0962      -1423.6538      8.9961015      9.3691554      48.05328      -50503.356      0.00111        5.0503356    
     11200   290.51794     -1423.6916      8.9961015      9.3691554      48.05376      -50861.025      0.00112        5.0861025    
     11300   310.45105     -1423.3207      8.9961015      9.3691554      48.05424      -51641.001      0.00113        5.1641001    
     11400   328.08568     -1423.043       8.9961015      9.3691554      48.05472      -52137.643      0.00114        5.2137643    
     11500   296.27164     -1424.0407      8.9961015      9.3691554      48.0552       -52313.871      0.00115        5.2313871    
     11600   286.89624     -1424.5979      8.9961015      9.3691554      48.05568      -51808.524      0.00116        5.1808524    
     11700   282.67577     -1425.1044      8.9961015      9.3691554      48.05616      -51042.825      0.00117        5.1042825    
     11800   296.88516     -1425.2053      8.9961015      9.3691554      48.05664      -50064.697      0.00118        5.0064697    
     11900   316.76952     -1425.2334      8.9961015      9.3691554      48.05712      -48968.996      0.00119        4.8968996    
     12000   336.49559     -1425.2757      8.9961015      9.3691554      48.0576       -47740.304      0.0012         4.7740304    
     12100   305.12679     -1426.5002      8.9961015      9.3691554      48.05808      -46852.54       0.00121        4.685254     
     12200   291.32605     -1427.0314      8.9961015      9.3691554      48.05856      -45875.148      0.00122        4.5875148    
     12300   291.70616     -1427.042       8.9961015      9.3691554      48.05904      -45353.831      0.00123        4.5353831    
     12400   290.31126     -1427.1999      8.9961015      9.3691554      48.05952      -45842.96       0.00124        4.584296     
     12500   278.46057     -1427.7774      8.9961015      9.3691554      48.06         -47161.703      0.00125        4.7161703    
     12600   297.95508     -1427.6002      8.9961015      9.3691554      48.06048      -48953.094      0.00126        4.8953094    
     12700   334.43612     -1426.8745      8.9961015      9.3691554      48.06096      -50570.361      0.00127        5.0570361    
     12800   314.64765     -1427.4218      8.9961015      9.3691554      48.06144      -52411.33       0.00128        5.241133     
     12900   282.37787     -1428.2975      8.9961015      9.3691554      48.06192      -54266.105      0.00129        5.4266105    
     13000   281.1807      -1428.5307      8.9961015      9.3691554      48.0624       -55360.078      0.0013         5.5360078    
     13100   293.65889     -1428.5323      8.9961015      9.3691554      48.06288      -56426.552      0.00131        5.6426552    
     13200   301.6638      -1428.7138      8.9961015      9.3691554      48.06336      -57812.888      0.00132        5.7812888    
     13300   324.96432     -1428.5653      8.9961015      9.3691554      48.06384      -58717.672      0.00133        5.8717672    
     13400   341.8123      -1428.6285      8.9961015      9.3691554      48.06432      -59088.199      0.00134        5.9088199    
     13500   290.44724     -1430.3508      8.9961015      9.3691554      48.0648       -59057.141      0.00135        5.9057141    
     13600   295.65302     -1430.5695      8.9961015      9.3691554      48.06528      -58242.36       0.00136        5.824236     
     13700   279.5642      -1431.3867      8.9961015      9.3691554      48.06576      -57639.063      0.00137        5.7639063    
     13800   293.62948     -1431.4401      8.9961015      9.3691554      48.06624      -57003.478      0.00138        5.7003478    
     13900   299.29578     -1431.5487      8.9961015      9.3691554      48.06672      -56280.413      0.00139        5.6280413    
     14000   315.24537     -1431.201       8.9961015      9.3691554      48.0672       -55370.416      0.0014         5.5370416    
     14100   303.61377     -1431.5122      8.9961015      9.3691554      48.06768      -54389.595      0.00141        5.4389595    
     14200   316.4218      -1431.3675      8.9961015      9.3691554      48.06816      -53274.912      0.00142        5.3274912    
     14300   318.11762     -1431.6735      8.9961015      9.3691554      48.06864      -52505.695      0.00143        5.2505695    
     14400   309.45512     -1432.1805      8.9961015      9.3691554      48.06912      -51551.132      0.00144        5.1551132    
     14500   301.14138     -1432.6037      8.9961015      9.3691554      48.0696       -50682.589      0.00145        5.0682589    
     14600   292.19331     -1433.0937      8.9961015      9.3691554      48.07008      -49678.49       0.00146        4.967849     
     14700   270.26116     -1433.9842      8.9961015      9.3691554      48.07056      -49066.143      0.00147        4.9066143    
     14800   295.77616     -1433.7304      8.9961015      9.3691554      48.07104      -48546.315      0.00148        4.8546315    
     14900   294.47444     -1434.2467      8.9961015      9.3691554      48.07152      -48834.089      0.00149        4.8834089    
     15000   310.15078     -1434.3502      8.9961015      9.3691554      48.072        -49432.401      0.0015         4.9432401    
     15100   309.25589     -1434.7604      8.9961015      9.3691554      48.07248      -50329.165      0.00151        5.0329165    
     15200   289.34532     -1435.3652      8.9961015      9.3691554      48.07296      -50605.572      0.00152        5.0605572    
     15300   267.64994     -1435.7283      8.9961015      9.3691554      48.07344      -50043.857      0.00153        5.0043857    
     15400   276.7267      -1435.3036      8.9961015      9.3691554      48.07392      -48651.967      0.00154        4.8651967    
     15500   305.59169     -1434.5275      8.9961015      9.3691554      48.0744       -46867.598      0.00155        4.6867598    
     15600   316.71447     -1434.3999      8.9961015      9.3691554      48.07488      -45817.381      0.00156        4.5817381    
     15700   312.89452     -1434.8331      8.9961015      9.3691554      48.07536      -45716.098      0.00157        4.5716098    
     15800   315.90752     -1434.9979      8.9961015      9.3691554      48.07584      -46298.577      0.00158        4.6298577    
     15900   298.02201     -1435.4559      8.9961015      9.3691554      48.07632      -47256.622      0.00159        4.7256622    
     16000   281.74988     -1435.6928      8.9961015      9.3691554      48.0768       -47584.787      0.0016         4.7584787    
     16100   268.9543      -1435.9074      8.9961015      9.3691554      48.07728      -47882.267      0.00161        4.7882267    
     16200   282.49387     -1435.6622      8.9961015      9.3691554      48.07776      -48643.775      0.00162        4.8643775    
     16300   302.23279     -1435.3256      8.9961015      9.3691554      48.07824      -49182.094      0.00163        4.9182094    
     16400   297.96736     -1435.5689      8.9961015      9.3691554      48.07872      -49105.553      0.00164        4.9105553    
     16500   299.93841     -1435.6555      8.9961015      9.3691554      48.0792       -48736.339      0.00165        4.8736339    
     16600   293.42045     -1435.9635      8.9961015      9.3691554      48.07968      -47830.325      0.00166        4.7830325    
     16700   283.55215     -1436.288       8.9961015      9.3691554      48.08016      -47065.799      0.00167        4.7065799    
     16800   281.71562     -1436.3376      8.9961015      9.3691554      48.08064      -46330.561      0.00168        4.6330561    
     16900   288.88181     -1436.2351      8.9961015      9.3691554      48.08112      -46085.911      0.00169        4.6085911    
     17000   302.85546     -1436.1313      8.9961015      9.3691554      48.0816       -45751.216      0.0017         4.5751216    
     17100   300.50069     -1436.5757      8.9961015      9.3691554      48.08208      -45034.654      0.00171        4.5034654    
     17200   320.24627     -1436.5871      8.9961015      9.3691554      48.08256      -44236.278      0.00172        4.4236278    
     17300   303.26792     -1437.5839      8.9961015      9.3691554      48.08304      -44045.974      0.00173        4.4045974    
     17400   282.0565      -1438.5417      8.9961015      9.3691554      48.08352      -43828.998      0.00174        4.3828998    
     17500   296.50659     -1438.416       8.9961015      9.3691554      48.084        -43430.604      0.00175        4.3430604    
     17600   299.63014     -1438.4947      8.9961015      9.3691554      48.08448      -43345.751      0.00176        4.3345751    
     17700   337.90114     -1437.6839      8.9961015      9.3691554      48.08496      -43608.506      0.00177        4.3608506    
     17800   317.82719     -1438.3377      8.9961015      9.3691554      48.08544      -45334.299      0.00178        4.5334299    
     17900   304.53732     -1438.8548      8.9961015      9.3691554      48.08592      -47983.909      0.00179        4.7983909    
     18000   293.9049      -1439.301       8.9961015      9.3691554      48.0864       -50453.388      0.0018         5.0453388    
     18100   271.54864     -1439.9811      8.9961015      9.3691554      48.08688      -52610.334      0.00181        5.2610334    
     18200   291.94879     -1439.4418      8.9961015      9.3691554      48.08736      -53474.859      0.00182        5.3474859    
     18300   303.94509     -1438.9775      8.9961015      9.3691554      48.08784      -52983.055      0.00183        5.2983055    
     18400   302.93918     -1438.8445      8.9961015      9.3691554      48.08832      -51547.158      0.00184        5.1547158    
     18500   325.24355     -1438.1731      8.9961015      9.3691554      48.0888       -49064.437      0.00185        4.9064437    
     18600   306.99952     -1438.5323      8.9961015      9.3691554      48.08928      -46455.426      0.00186        4.6455426    
     18700   298.53667     -1438.7136      8.9961015      9.3691554      48.08976      -44035.563      0.00187        4.4035563    
     18800   290.20546     -1439.0404      8.9961015      9.3691554      48.09024      -42382.947      0.00188        4.2382947    
     18900   276.33478     -1439.6888      8.9961015      9.3691554      48.09072      -41764.465      0.00189        4.1764465    
     19000   299.76909     -1439.4817      8.9961015      9.3691554      48.0912       -41443.451      0.0019         4.1443451    
     19100   328.32253     -1439.077       8.9961015      9.3691554      48.09168      -41330.529      0.00191        4.1330529    
     19200   304.07724     -1439.9158      8.9961015      9.3691554      48.09216      -41955.853      0.00192        4.1955853    
     19300   292.14498     -1440.3833      8.9961015      9.3691554      48.09264      -42756.965      0.00193        4.2756965    
     19400   284.1646      -1440.7473      8.9961015      9.3691554      48.09312      -43722.074      0.00194        4.3722074    
     19500   289.45797     -1440.7711      8.9961015      9.3691554      48.0936       -44205.02       0.00195        4.420502     
     19600   344.50735     -1439.4744      8.9961015      9.3691554      48.09408      -43544.819      0.00196        4.3544819    
     19700   324.06667     -1439.9175      8.9961015      9.3691554      48.09456      -42727.443      0.00197        4.2727443    
     19800   300.20091     -1440.4255      8.9961015      9.3691554      48.09504      -41665.992      0.00198        4.1665992    
     19900   291.49674     -1440.6591      8.9961015      9.3691554      48.09552      -40658.994      0.00199        4.0658994    
     20000   271.28212     -1441.2592      8.9961015      9.3691554      48.096        -39758.52       0.002          3.975852     
Loop time of 2042.17 on 1 procs for 20000 steps with 200 atoms

Performance: 0.085 ns/day, 283.635 hours/ns, 9.794 timesteps/s, 1.959 katom-step/s
951.8% CPU use with 1 MPI tasks x no OpenMP threads

MPI task timing breakdown:
Section |  min time  |  avg time  |  max time  |%varavg| %total
---------------------------------------------------------------
Pair    | 2040.1     | 2040.1     | 2040.1     |   0.0 | 99.90
Neigh   | 0.0072577  | 0.0072577  | 0.0072577  |   0.0 |  0.00
Comm    | 0.1881     | 0.1881     | 0.1881     |   0.0 |  0.01
Output  | 1.4221     | 1.4221     | 1.4221     |   0.0 |  0.07
Modify  | 0.43823    | 0.43823    | 0.43823    |   0.0 |  0.02
Other   |            | 0.04957    |            |       |  0.00

Nlocal:            200 ave         200 max         200 min
Histogram: 1 0 0 0 0 0 0 0 0 0
Nghost:           1302 ave        1302 max        1302 min
Histogram: 1 0 0 0 0 0 0 0 0 0
Neighs:              0 ave           0 max           0 min
Histogram: 1 0 0 0 0 0 0 0 0 0
FullNghs:        13990 ave       13990 max       13990 min
Histogram: 1 0 0 0 0 0 0 0 0 0

Total # of neighbors = 13990
Ave neighs/atom = 69.95
Neighbor list builds = 15
Dangerous builds = 0

print "All done"
All done

# Note
print "The rapid change in stress above a certain strain is due to the introduction of large deformations such as dislocations into the system."
The rapid change in stress above a certain strain is due to the introduction of large deformations such as dislocations into the system.
#-------------------- End ----------------------------------------------------------------
Total wall time: 0:54:29
