LAMMPS data file via write_data, version 2 Aug 2023, timestep = 10000, units = metal

200 atoms
2 atom types

1.527036543511617 10.47296345648838 xlo xhi
-24.00000000000756 24.00000000000756 ylo yhi
-1.67231377269463 7.672313772694575 zlo zhi

Masses

1 55.85
2 58.93

Atoms # atomic

136 2 1.5318187022063146 -23.231995936892652 1.0632427585703292 0 0 0
150 2 3.2846378833102237 -21.97436286317941 1.0609646855849815 0 0 0
185 2 2.1139466228766817 -20.407303995885243 -1.6714547744324892 0 0 0
192 2 4.454200757133188 -23.233758978615338 -1.6683106872763231 0 0 0
154 2 5.037599994740955 -20.40662995518507 1.060857456089354 0 0 0
168 2 7.378282894440757 -23.23111450874129 1.0614483377253183 0 0 0
200 2 6.206391050112897 -21.97230450356445 -1.6675198722119944 0 0 0
128 2 10.276562654881287 -23.221512420021295 -1.4766145115532163 0 0 0
180 2 9.127514667377087 -21.9699444641934 1.0613270262860919 0 0 0
199 2 7.963968742539709 -20.40721660482263 -1.6695466737939053 0 0 0
193 2 3.8672068822683143 -18.83705153439038 -1.6691651972300432 0 0 0
140 2 2.699907175267573 -17.269872909001055 1.0611885119775224 0 0 0
194 2 5.622845889275459 -17.26743551403858 -1.6685155887476284 0 0 0
167 2 6.793119198516683 -18.83710503547979 1.0609852139436904 0 0 0
112 2 9.718140324912959 -18.835377802388894 -1.6710880045777372 0 0 0
172 2 8.548552321439768 -17.26741818689051 1.0610291889160939 0 0 0
153 2 4.452636447393277 -15.697408934978776 1.0609412303502166 0 0 0
186 2 1.5559669679769481 -15.701057010119735 -1.4895754218425021 0 0 0
187 2 3.2827029595132293 -14.127546373217612 -1.6689232247364358 0 0 0
184 2 7.378792946981817 -15.697671335100887 -1.6686570674676624 0 0 0
158 2 6.208027225913746 -14.127839797771735 1.0610103136414417 0 0 0
182 2 10.300732624963914 -15.694247481356188 1.0634992820005733 0 0 0
178 2 9.130395729649788 -14.12280450920292 -1.6693645960024301 0 0 0
139 2 2.1148388615977183 -12.561151278994497 1.061073525049162 0 0 0
195 2 5.037664650750241 -12.558165881868627 -1.6684722956683862 0 0 0
144 2 3.8674971342769835 -10.988134203925027 1.0608483405155262 0 0 0
188 2 2.700580605835622 -9.423704999501334 -1.6693320412308879 0 0 0
157 2 5.622921245082314 -9.41859349141983 1.0610107485856703 0 0 0
171 2 7.963448960463179 -12.558313812194287 1.0608497088102666 0 0 0
196 2 6.793283177378165 -10.988302891651605 -1.6684709761321574 0 0 0
176 2 9.71610642620626 -10.98531425187022 1.0610778672703098 0 0 0
163 2 8.548242272431693 -9.418941464894875 -1.6689087828989175 0 0 0
132 2 1.5302324845977149 -7.8521544298311 1.0635402775591067 0 0 0
189 2 4.452164019062908 -7.848844430703807 -1.6686180895834821 0 0 0
143 2 3.2824050186793374 -6.278882108928605 1.0610309875294155 0 0 0
162 2 7.37830035372343 -7.849022462206593 1.0609592122473899 0 0 0
197 2 6.20810601269355 -6.2789858751851595 -1.6684681434341184 0 0 0
147 2 10.274929784962644 -7.845527549201269 -1.4894636381236424 0 0 0
175 2 9.131040029217903 -6.276346322773968 1.0612211299080532 0 0 0
183 2 2.112936642387137 -4.710912329208307 -1.6708501607720367 0 0 0
148 2 5.037806145245004 -4.709153904717844 1.0609497994514137 0 0 0
190 2 3.867334144974497 -3.138667378556738 -1.6685071639123856 0 0 0
198 2 7.963876305184571 -4.709793900788655 -1.6686973572822152 0 0 0
161 2 6.793199392746871 -3.139335514108682 1.0609652360067305 0 0 0
133 2 9.718282220938544 -3.1376315629502796 -1.670655619868119 0 0 0
134 2 2.700170061880997 -1.5728521125065766 1.0611649056172572 0 0 0
66 1 4.451628368977824 -0.00010296157283466107 1.0610182416384983 0 0 0
191 2 5.622330761149655 -1.5699635834255687 -1.6689423442987699 0 0 0
62 1 2.700193926613958 1.5728872400895757 1.0607572444422184 0 0 0
96 1 1.551122367690861 0.0008952824507366692 -1.49574169037907 0 0 0
98 1 5.622752597987272 1.5720798794473778 -1.6706659944008915 0 0 0
164 2 8.548116504549444 -1.5711002817904813 1.060809198243769 0 0 0
103 1 7.376688959048414 0.0007430408736379868 -1.6700057479354926 0 0 0
76 1 8.548062671122231 1.571237121711968 1.0607719321000837 0 0 0
78 1 10.299031673583126 5.8607804546534364e-05 1.0623113749974877 0 0 0
97 1 3.8675561982922946 3.1395858312794442 -1.670851911477917 0 0 0
88 1 2.1138601880424743 4.711931970930134 -1.6720736850095361 0 0 0
65 1 5.038145619329422 4.709324421285917 1.0608831184822458 0 0 0
70 1 6.792878825524681 3.1399658108637976 1.0608786100284526 0 0 0
104 1 9.717150731214579 3.1367906528494283 -1.6722282699881732 0 0 0
100 1 7.963500019323584 4.709596279427803 -1.6709598279031097 0 0 0
50 1 3.2824867083257927 6.279274259204403 1.0608787181578152 0 0 0
46 1 1.5294002163809681 7.851092420672585 1.0631226438101185 0 0 0
90 1 4.452596434790055 7.848907729794273 -1.6706950520567831 0 0 0
99 1 6.208038467629824 6.278979338093942 -1.670627806234205 0 0 0
69 1 7.377962025597402 7.849123123595358 1.0608844212776967 0 0 0
74 1 9.131634873137568 6.277990198919594 1.0609576038621993 0 0 0
102 1 10.276974498545277 7.845786683262697 -1.5000171732459593 0 0 0
89 1 2.7004257566253123 9.422533338839356 -1.6707251270447292 0 0 0
49 1 3.8678916794248996 10.988165718435633 1.0607037993306538 0 0 0
54 1 5.622938670147551 9.418636521877517 1.0609867080178574 0 0 0
34 1 2.114144226882811 12.56015667260588 1.0609236578497108 0 0 0
91 1 5.037808057251517 12.558125046447245 -1.6707049864766061 0 0 0
92 1 6.793137407427027 10.988346460103777 -1.6707010899493355 0 0 0
101 1 8.548184206720057 9.41900123777537 -1.6708983614989215 0 0 0
73 1 9.716801361932768 10.986300126464409 1.0609253516553507 0 0 0
58 1 7.96305489963282 12.558288225676625 1.0607044377591823 0 0 0
82 1 3.28275769589875 14.127494885797983 -1.6709245830633381 0 0 0
38 1 4.452982782946011 15.697303985546453 1.0608880749799519 0 0 0
81 1 1.5539394813412237 15.700755982546212 -1.5001611075162498 0 0 0
53 1 6.208005580297772 14.127805770626814 1.0609901460835662 0 0 0
93 1 7.378362834035064 15.697613157702781 -1.6707571716502756 0 0 0
94 1 9.130511653797054 14.12395233878287 -1.6707453796868055 0 0 0
60 1 10.301552430162447 15.695314620648235 1.0631021910640088 0 0 0
33 1 2.6993405060292677 17.268201690250702 1.0609621801808555 0 0 0
83 1 3.8674808854686753 18.836636653804526 -1.6711731230748186 0 0 0
84 1 5.622926660204129 17.267553761643388 -1.670737380635198 0 0 0
42 1 6.792882642078661 18.83683214711975 1.060923086176521 0 0 0
57 1 8.548451480093988 17.266976759993977 1.0609136400531591 0 0 0
95 1 9.717272284579497 18.83405639794109 -1.6721870740551597 0 0 0
28 1 1.5306096296021885 23.22812755748359 1.063393135161186 0 0 0
30 1 3.2837709584980135 21.975580344567838 1.061049422469984 0 0 0
79 1 2.114473193018636 20.40753667445361 -1.672187603320064 0 0 0
80 1 4.453525723585432 23.229745032316846 -1.6699775988937013 0 0 0
37 1 5.038051868946769 20.40615054150803 1.0609463507017858 0 0 0
41 1 7.378769110815576 23.230011714261074 1.0617197902338207 0 0 0
85 1 6.207620896120137 21.974085952216488 -1.6696123410085963 0 0 0
44 1 9.129191996446126 21.97330118207201 1.0613373837499807 0 0 0
86 1 7.963268241275794 20.40614264432383 -1.6710533098847884 0 0 0
87 1 10.278361339768061 23.220051053381827 -1.4893580512126423 0 0 0
107 2 1.5607473694911196 -23.22620054128905 6.334205083857501 0 0 0
114 2 3.282062948754814 -21.970821336932275 6.523601771209963 0 0 0
135 2 2.1149223938436905 -20.408619900558215 3.7944431873488726 0 0 0
149 2 4.451921056374496 -23.230634569144133 3.7940598639033474 0 0 0
116 2 5.038103961578889 -20.4070659078076 6.524740707130933 0 0 0
123 2 7.3811805869986085 -23.23372255126111 6.523717956169501 0 0 0
165 2 6.209171377283062 -21.97517731569897 3.7945821017697416 0 0 0
129 2 9.12594032808018 -21.965723939665672 6.524393964591739 0 0 0
166 2 7.96323993391845 -20.40672845140182 3.794733033322442 0 0 0
179 2 10.303578966881563 -23.228536288879525 3.792819660367514 0 0 0
151 2 3.867456573702687 -18.836906661839485 3.794719341064833 0 0 0
109 2 2.70057542238736 -17.272532079750803 6.52494529017702 0 0 0
152 2 5.622912515077877 -17.267444735959838 3.794504471375939 0 0 0
122 2 6.793424340064598 -18.8375963485447 6.524344971264159 0 0 0
181 2 9.716106514202668 -18.833991102874553 3.794451282859258 0 0 0
125 2 8.548308912869494 -17.267834274318115 6.5245334392976 0 0 0
115 2 4.452161351111599 -15.697712596769302 6.524171822530933 0 0 0
137 2 1.5301973023383486 -15.701110661302932 3.792018671265594 0 0 0
138 2 3.2823596043505336 -14.127832478866894 3.794474762432582 0 0 0
169 2 7.3783070341569665 -15.697897199095108 3.7945667606230633 0 0 0
118 2 6.208116599557369 -14.127911230050527 6.524005376257584 0 0 0
130 2 10.274936322217616 -15.694391657774093 6.345118751251017 0 0 0
170 2 9.131055427256241 -14.125300361160768 3.7943061156653286 0 0 0
108 2 2.113051972805983 -12.560044324223963 6.526418500235187 0 0 0
155 2 5.037765462121403 -12.558156174908975 3.7945320417045223 0 0 0
111 2 3.867178136013007 -10.987861461530201 6.524368188775793 0 0 0
141 2 2.69989911748889 -9.421143324339077 3.7943059667324683 0 0 0
117 2 5.622833951899985 -9.41854574328405 6.523995941063612 0 0 0
124 2 7.963767182929027 -12.558611939239814 6.524374336877897 0 0 0
156 2 6.793182256867221 -10.988294921784018 3.7945315239767634 0 0 0
127 2 9.717881055614068 -10.986509670177163 6.526401810196296 0 0 0
173 2 8.548576989534023 -9.418616628513782 3.7944736913212527 0 0 0
105 2 1.556005836717234 -7.852135813379802 6.344972628908498 0 0 0
142 2 4.452648211768904 -7.848530270474308 3.794562206126084 0 0 0
110 2 3.28272050082591 -6.278633970682989 6.52440153703691 0 0 0
120 2 7.378783377925859 -7.848799081023525 6.524129461219738 0 0 0
159 2 6.208043209597246 -6.278915846143248 3.794515607101408 0 0 0
174 2 10.300713735676432 -7.8454298977376835 3.7919771837417255 0 0 0
126 2 9.130340556439608 -6.273774341116381 6.524809661426206 0 0 0
131 2 2.1150185058088575 -4.712175160779828 3.794448647524059 0 0 0
113 2 5.0377477465193135 -4.709369731294288 6.523835936571801 0 0 0
145 2 3.8674802014417495 -3.1392145222562697 3.7946775163710034 0 0 0
160 2 7.963504969015261 -4.7092820455794735 3.794706539729601 0 0 0
119 2 6.793413318552746 -3.1391154931166394 6.523639825378192 0 0 0
177 2 9.715939797307598 -3.136087714572563 3.7946018184803765 0 0 0
106 2 2.6990523844789207 -1.5738003985123297 6.525311478555907 0 0 0
146 2 5.623443903568921 -1.5701825799827558 3.7946712523562613 0 0 0
18 1 2.7000734498099446 1.5754221864833489 6.52652846800418 0 0 0
20 1 4.4507817027684675 0.0006967036931290967 6.525429185891081 0 0 0
61 1 1.5273805548093724 -5.694196967839956e-05 3.7925266898697982 0 0 0
64 1 5.622922551864638 1.5708310336919424 3.794765290303077 0 0 0
75 1 7.37683272014539 -0.00023373684488974078 3.7947306250165336 0 0 0
121 2 8.547311392021886 -1.5709013513069165 6.524569086468126 0 0 0
25 1 8.548106935102163 1.5724075622591525 6.5263219278622415 0 0 0
26 1 10.273351062160948 0.0007446747152936629 6.353570073831694 0 0 0
63 1 3.867804487894727 3.13956405648222 3.7948059452250953 0 0 0
45 1 2.1140954874150713 4.711374345580085 3.7946114190951215 0 0 0
19 1 5.037800594567323 4.709329394932088 6.526323749144495 0 0 0
22 1 6.793107551410597 3.139716469903331 6.526322996782206 0 0 0
77 1 9.716696733436642 3.137738799108044 3.794697708578496 0 0 0
68 1 7.963131700183022 4.709603646983897 3.794855955996732 0 0 0
12 1 3.282766145373665 6.278627597237295 6.526430395623364 0 0 0
10 1 1.55397994571818 7.851830997011127 6.355544800301296 0 0 0
48 1 4.452987467772572 7.848478419386644 3.7946331741224384 0 0 0
67 1 6.208025033456816 6.279022638878503 3.7945186048301656 0 0 0
21 1 7.378346518828127 7.848706665833158 6.526210500842364 0 0 0
24 1 9.130524965298944 6.275069194251155 6.52623292262319 0 0 0
72 1 10.301559456640778 7.846556696392557 3.7923876785339714 0 0 0
47 1 2.6993127385174267 9.419660850557214 3.7945707937734823 0 0 0
11 1 3.867456715475626 10.98806877416245 6.526409353058223 0 0 0
14 1 5.622902837570805 9.418639973509494 6.526142092248736 0 0 0
4 1 2.113836058796474 12.560720779834577 6.527559918575241 0 0 0
51 1 5.038188942177824 12.557905397871952 3.794587195426166 0 0 0
52 1 6.792757118534187 10.988549969071999 3.7945881635770786 0 0 0
71 1 8.548490549703711 9.418380194286646 3.794636813519807 0 0 0
23 1 9.717106877245907 10.98577604688748 6.5275524963215315 0 0 0
16 1 7.963485570498529 12.558403482020271 6.526412649231834 0 0 0
32 1 3.2824512772605243 14.128074174921279 3.7946348053398506 0 0 0
6 1 4.452591873745553 15.69779556645704 6.5262595618952055 0 0 0
31 1 1.5293467551807156 15.699998464265919 3.792432373215471 0 0 0
13 1 6.208041765155771 14.127837211966131 6.5261591140503485 0 0 0
55 1 7.377962411483797 15.697957352619664 3.7946332207089375 0 0 0
56 1 9.131637133850326 14.12678094974062 3.7945720477141824 0 0 0
17 1 10.276981694797117 15.694645922570976 6.3557068907131935 0 0 0
3 1 2.70048081143192 17.27117002174742 6.5263999652979425 0 0 0
35 1 3.86792300585741 18.836553685865663 3.794841154061968 0 0 0
36 1 5.622992505292398 17.267382665587387 3.794510589607881 0 0 0
8 1 6.793179313827404 18.83705934167756 6.526532037643486 0 0 0
15 1 8.548208713160395 17.267850828128417 6.526617808034745 0 0 0
59 1 9.717046097018281 18.834503679478 3.794481860180729 0 0 0
1 1 1.5583232217641636 23.222802363710205 6.346152154257747 0 0 0
2 1 3.283430817708051 21.973185791642656 6.525733521602232 0 0 0
27 1 2.1140716783608364 20.407912562501824 3.7944936355595806 0 0 0
29 1 4.452454693556497 23.229093594407402 3.793763090602551 0 0 0
5 1 5.038010039846203 20.40646761710341 6.5266194081519355 0 0 0
7 1 7.380116716731679 23.229958075953313 6.525228172315036 0 0 0
39 1 6.2080847660146725 21.975996040061364 3.794478065686658 0 0 0
9 1 9.12773144099345 21.968868339483336 6.525404676876669 0 0 0
40 1 7.963089651687838 20.406298302837342 3.794581817735961 0 0 0
43 1 10.303696638650196 23.22794171781745 3.7918052797573485 0 0 0

Velocities

136 0 0 0
150 0 0 0
185 0 0 0
192 0 0 0
154 0 0 0
168 0 0 0
200 0 0 0
128 0 0 0
180 0 0 0
199 0 0 0
193 0 0 0
140 0 0 0
194 0 0 0
167 0 0 0
112 0 0 0
172 0 0 0
153 0 0 0
186 0 0 0
187 0 0 0
184 0 0 0
158 0 0 0
182 0 0 0
178 0 0 0
139 0 0 0
195 0 0 0
144 0 0 0
188 0 0 0
157 0 0 0
171 0 0 0
196 0 0 0
176 0 0 0
163 0 0 0
132 0 0 0
189 0 0 0
143 0 0 0
162 0 0 0
197 0 0 0
147 0 0 0
175 0 0 0
183 0 0 0
148 0 0 0
190 0 0 0
198 0 0 0
161 0 0 0
133 0 0 0
134 0 0 0
66 0 0 0
191 0 0 0
62 0 0 0
96 0 0 0
98 0 0 0
164 0 0 0
103 0 0 0
76 0 0 0
78 0 0 0
97 0 0 0
88 0 0 0
65 0 0 0
70 0 0 0
104 0 0 0
100 0 0 0
50 0 0 0
46 0 0 0
90 0 0 0
99 0 0 0
69 0 0 0
74 0 0 0
102 0 0 0
89 0 0 0
49 0 0 0
54 0 0 0
34 0 0 0
91 0 0 0
92 0 0 0
101 0 0 0
73 0 0 0
58 0 0 0
82 0 0 0
38 0 0 0
81 0 0 0
53 0 0 0
93 0 0 0
94 0 0 0
60 0 0 0
33 0 0 0
83 0 0 0
84 0 0 0
42 0 0 0
57 0 0 0
95 0 0 0
28 0 0 0
30 0 0 0
79 0 0 0
80 0 0 0
37 0 0 0
41 0 0 0
85 0 0 0
44 0 0 0
86 0 0 0
87 0 0 0
107 0 0 0
114 0 0 0
135 0 0 0
149 0 0 0
116 0 0 0
123 0 0 0
165 0 0 0
129 0 0 0
166 0 0 0
179 0 0 0
151 0 0 0
109 0 0 0
152 0 0 0
122 0 0 0
181 0 0 0
125 0 0 0
115 0 0 0
137 0 0 0
138 0 0 0
169 0 0 0
118 0 0 0
130 0 0 0
170 0 0 0
108 0 0 0
155 0 0 0
111 0 0 0
141 0 0 0
117 0 0 0
124 0 0 0
156 0 0 0
127 0 0 0
173 0 0 0
105 0 0 0
142 0 0 0
110 0 0 0
120 0 0 0
159 0 0 0
174 0 0 0
126 0 0 0
131 0 0 0
113 0 0 0
145 0 0 0
160 0 0 0
119 0 0 0
177 0 0 0
106 0 0 0
146 0 0 0
18 0 0 0
20 0 0 0
61 0 0 0
64 0 0 0
75 0 0 0
121 0 0 0
25 0 0 0
26 0 0 0
63 0 0 0
45 0 0 0
19 0 0 0
22 0 0 0
77 0 0 0
68 0 0 0
12 0 0 0
10 0 0 0
48 0 0 0
67 0 0 0
21 0 0 0
24 0 0 0
72 0 0 0
47 0 0 0
11 0 0 0
14 0 0 0
4 0 0 0
51 0 0 0
52 0 0 0
71 0 0 0
23 0 0 0
16 0 0 0
32 0 0 0
6 0 0 0
31 0 0 0
13 0 0 0
55 0 0 0
56 0 0 0
17 0 0 0
3 0 0 0
35 0 0 0
36 0 0 0
8 0 0 0
15 0 0 0
59 0 0 0
1 0 0 0
2 0 0 0
27 0 0 0
29 0 0 0
5 0 0 0
7 0 0 0
39 0 0 0
9 0 0 0
40 0 0 0
43 0 0 0
