LAMMPS data file via write_data, version 2 Aug 2023, timestep = 2000, units = metal

3750 atoms
5 atom types

-1.9374622220342133 101.9374622220342 xlo xhi
-1.9374622220342133 101.9374622220342 ylo yhi
-0.1162477333220604 6.1162477333220995 zlo zhi

Masses

1 26.9815
2 28.086
3 24.305
4 63.54
5 55.847

Atoms # atomic

1 1 -0.8888239914986444 -1.1479018615121217 0.2144298814347665 0 0 0
2 1 1.1047796657076905 1.1715332911687972 0.6467367784699467 0 0 0
3 1 0.4242102575654507 -1.0160527449251204 2.6754126743224758 0 0 0
652 1 -0.252514325547885 1.034744548090631 4.584238863117768 0 0 0
653 1 1.766310081272596 -1.1422678491731557 5.435966363872496 0 0 0
4 1 -1.5143634462851077 1.1364064108184988 1.7791959821258356 0 0 0
5 1 3.0689584932099585 -1.1328998308991372 1.8636711289564094 0 0 0
7 1 4.416837619750113 -0.9137053694912063 4.1841323103866666 0 0 0
8 1 2.3173373689407866 1.3062027869915207 3.1089143511067237 0 0 0
654 1 3.7838085706486293 1.5339705791638854 5.482117383907239 0 0 0
6 1 4.957245263494997 1.578958938899493 3.079031807968837 0 0 0
9 1 5.302386764747009 -0.5021133401942923 0.5054312179209165 0 0 0
10 1 7.448370305419829 1.3725062143108677 1.0164910364256239 0 0 0
11 1 7.158829353545434 -0.6036058437564173 2.899320083124338 0 0 0
12 1 8.129283091280568 1.197794605072008 4.413008609016357 0 0 0
655 1 8.323513352130899 -1.5148912225368953 0.7481322406772747 0 0 1
656 1 10.528704184751858 -0.14020838655529166 5.736525841130234 0 0 0
14 1 12.841228362675851 -1.4590153743432577 0.385328642690164 0 0 0
16 1 9.845133314264023 0.7010149855527912 1.8553064478570966 0 0 0
41 1 12.964574369563888 2.5808492320851757 1.5786122000445924 0 0 0
658 1 12.754322434005129 0.04946623474584455 2.7905105107839714 0 0 0
17 1 14.878780259300424 0.5971418274861389 0.8748740153206807 0 0 0
660 1 14.92274391016803 -0.658496151633329 4.913552969051728 0 0 0
20 1 14.818160299350303 1.7277453821646946 3.285088480140729 0 0 0
43 1 12.90316035776193 1.3247526105457235 5.33489894034361 0 0 -1
18 1 17.486738905496463 0.9210280168182661 5.499654553690809 0 0 -1
21 1 19.36581489347582 -0.8110020438821326 4.463649419112706 0 0 -1
24 1 16.93583191219122 -0.041162230849348 2.859813570478157 0 0 0
47 1 19.44297916831492 0.06955901729628033 0.7536788834200321 0 0 0
674 1 19.226736150927707 1.7945464936634825 3.186812760774451 0 0 0
19 1 17.091710106781125 -1.508235817106255 0.5815123489952584 0 0 0
22 1 21.21760065537352 101.92716047062851 0.11698630366076226 0 -1 0
662 1 21.525354631712386 -0.4094692884969302 2.6030839882066643 0 0 0
48 1 21.397208028584593 0.853510567572167 5.084076146775782 0 0 -1
25 1 23.426371086316625 -1.4583518156885502 4.524696744421806 0 0 -1
26 1 23.336649388817946 -0.0319317940588244 0.6374350924382168 0 0 0
1576 1 25.580243605565936 -0.7933978937944084 2.8847833371326717 0 0 0
976 1 25.47781061474134 0.07167742108667863 5.2103773094838015 0 0 -1
977 1 25.397454897039363 101.43428540777718 0.17193383979894317 0 -1 0
981 1 27.67513237922327 -0.5574517533065431 0.9929042352773711 0 0 0
978 1 27.659627251071385 -1.7228716101697077 4.829289777846347 0 0 -1
980 1 29.591508744012366 101.439325715456 0.31362162784384706 0 -1 0
1578 1 29.625533636387676 -1.374648641686226 2.6926113682509474 0 0 0
979 1 30.009702130102863 -0.003549511134058214 5.092957621210541 0 0 -1
1589 1 27.951885462160856 0.8423173563609523 3.4500665137481565 0 0 0
982 1 32.05057102545475 101.89372981852625 4.353093093280264 0 -1 -1
984 1 34.18418266117387 101.32054175544427 -0.03296291934026138 0 -1 0
985 1 31.962858856737554 -0.5256536358703816 0.3903719556631954 0 0 0
1580 1 34.1442414794696 -1.0513091168586828 2.6223261058266347 0 0 0
983 1 34.24127297028965 0.09621413871609219 5.076129864462053 0 0 -1
986 1 36.10541709065247 101.8072779950381 4.236510688236067 0 -1 -1
989 1 36.49132038171015 -0.49230860019976275 0.6326883734781997 0 0 0
1593 1 36.846955662750915 0.8290868139024123 3.1284308428696574 0 0 0
987 1 38.552450724504666 -0.2170358000537984 4.900735465367629 0 0 -1
1582 1 38.48474875188121 -1.3610526668340892 2.25752711037848 0 0 0
990 1 40.31221824792124 101.86705253367337 4.334226292727246 0 -1 -1
993 1 40.561740598625725 -0.5543414556547082 0.5524800541715387 0 0 0
1595 1 40.91085977621184 0.7318900255470484 3.6522897668892598 0 0 0
991 1 42.75334438708321 -0.15066260057456327 5.21905964828194 0 0 -1
1584 1 42.51691980273189 -1.2664661602143628 2.6133329675443973 0 0 0
1585 1 44.65392538492176 -0.8657365113121833 0.8639335096145093 0 0 0
1597 1 44.84150470570169 0.4607091160094323 3.275007103166726 0 0 0
1016 1 43.06564784435139 1.3189257518528632 1.5032657344687725 0 0 0
1586 1 47.127975170415 0.5035333027341582 1.6485730695974194 0 0 0
996 1 47.13630639426112 -1.6396259237888504 -0.022934028761800992 0 0 0
995 1 47.49502101194507 0.8311981645531104 4.511310157425429 0 0 -1
994 1 46.677067229360254 -1.6936853379786747 3.2197641585346832 0 0 -1
1587 1 49.26939239409344 -1.5829051337202904 1.5988908593748277 0 0 0
998 1 49.73048750690954 -1.6997041981063745 5.0962047705197815 0 0 -1
999 1 49.82569204289645 0.809143799251705 0.20462030695958477 0 0 0
2526 1 50.27585816154553 0.6720198994240922 3.238771184944763 0 0 0
1876 1 52.52561544917 0.34715310537861344 5.421358399925677 0 0 -1
2527 1 51.84268503518867 -1.5144327974108356 3.308856240840595 0 0 0
1881 1 52.75243606217927 0.5763165865748316 1.9344707685961269 0 0 0
1878 1 54.69128559515072 101.90031996005968 5.347109558507043 0 -1 -1
2528 1 54.60365860854245 0.5361503519006807 3.869051235216965 0 0 0
1879 1 55.18699246090618 0.3252456083120041 0.58591981251536 0 0 0
2529 1 57.934411023986975 -0.2309193285858384 -0.10690507871185018 0 0 1
1885 1 59.49010912828623 -0.7451494405851096 4.109469061131468 0 0 0
1883 1 58.91609263465504 2.95746999886038 -0.04877011622355884 0 0 0
2509 1 57.109130399332116 0.09846280264952423 2.804030176504123 0 1 0
1882 1 59.663922780635886 0.7701757474119924 1.7654974546673552 0 0 0
2530 1 60.88481234417105 0.7829254281118225 5.705234065364675 0 0 0
1889 1 62.26567493352397 1.3203274569163654 3.1677391914959916 0 0 0
1887 1 63.53639373031581 1.1803671476636617 0.652469558998854 0 0 0
1888 1 64.48192355384143 -0.9077826555014181 2.5501230763616327 0 0 0
2532 1 64.67062546442541 1.144326251103672 4.455582215976292 0 0 0
1890 1 65.62649236515695 -0.7882463627144518 0.16742219978679934 0 0 0
2531 1 63.04490395161258 -1.0143886328521567 5.076585150306575 0 0 0
1893 1 66.22037182825326 1.540935911128991 2.0073516977140975 0 0 0
1891 1 67.95020812406192 1.4485685761135088 5.582435788439526 0 0 -1
1892 1 68.25376025295222 -0.3566625683974325 1.245324133120244 0 0 0
2533 1 67.042177540942 -0.487725184682372 3.828880951378804 0 0 0
2534 1 68.97260094052555 1.6815014873341965 2.9947493846974447 0 0 0
1894 1 70.07101064129337 -0.32203315218387285 5.230390463467465 0 0 -1
1895 1 71.87963811550114 1.7135549524094693 4.12491001028864 0 0 -1
1896 1 72.64052415828844 -0.2596500096682177 -0.1077221704590432 0 0 0
1897 1 70.95589739546173 1.840650220352766 0.8618798096681464 0 0 0
2535 1 71.04548893454192 -0.3076466007608938 2.5959881516358347 0 0 0
2536 1 73.75774239777125 1.6298797402390384 1.7887089777676237 0 0 0
2537 1 74.28509520629072 -0.1568698590469566 4.031670759254681 0 0 0
1900 1 75.09494654293135 -0.8685423412341804 1.2629004879880752 0 0 0
2538 1 76.17602424128296 1.4740980270176687 1.0759290611288594 0 0 0
2850 1 77.01615115603322 -0.8719132887410053 4.88006114864399 0 1 0
3430 1 77.5948384713622 -0.7742710825424604 2.0481777021316305 0 1 0
2851 1 79.57248012562333 -0.8528643457591258 3.9732317762851403 0 0 -1
3451 1 78.48466548877693 1.0252731458087654 5.993219733202407 0 0 -1
3452 1 79.7654709038864 1.608684128270185 2.9032303453402823 0 0 0
2853 1 80.38409590894429 -0.2832214166152758 0.8874591578750204 0 0 0
2852 1 81.13071557365635 1.488059356596899 5.13923752218755 0 0 -1
2855 1 82.89651267039532 -0.8920780014864811 0.17023947169801434 0 0 0
2858 1 82.69894021089041 1.7961261042275698 1.7588755740936057 0 0 0
3453 1 82.0494738381629 -0.5344048501502188 3.0871149691166364 0 0 0
3454 1 83.80557777299137 1.083655116209656 4.485952194053041 0 0 0
2857 1 84.67468758359519 -1.10016572512289 2.3645703801900058 0 0 0
2856 1 84.8954912568917 1.1995241769958618 0.49113642005360814 0 0 0
2859 1 86.9006014078339 -0.5377785876666523 1.275649999081699 0 0 0
2862 1 86.48468885499918 1.2375214161865946 3.20030956367433 0 0 0
3455 1 85.51403328390069 -1.118954540296095 5.00378103253299 0 0 0
3456 1 87.82078943866661 1.498373546409586 5.573191872517869 0 0 0
2860 1 88.94250029538163 1.0261424765855232 2.070745876209953 0 0 0
2861 1 88.22500306320597 -1.082700014275366 3.79004220015265 0 0 0
2866 1 90.27836652441296 1.0664169153718217 4.43531444212334 0 0 0
3457 1 89.69162919744164 -1.3713704336237202 5.921615964094349 0 0 0
2863 1 90.91875331859904 -0.8174031295505313 2.62413838074218 0 0 0
2864 1 91.68361988233899 0.848606788248111 0.5366286764092107 0 0 0
2865 1 93.55844021899759 -0.9160291973667107 1.2197215259925802 0 0 0
3458 1 92.97541545829026 1.0336819748320174 2.991147180123898 0 0 0
2870 1 94.32850429919942 1.1487064342446143 5.653405195252734 0 0 -1
2867 1 92.55313952158978 -1.0809578335902092 4.823895637655294 0 0 -1
3459 1 95.045047514826 -0.884600836059467 3.795605102064499 0 0 0
2868 1 96.99257800270206 1.0585551122075145 4.262896441938706 0 0 -1
2869 1 96.26582717017742 -1.5067609743204127 0.1533487049277228 0 0 0
3460 1 95.8180751674715 0.8999139958815205 1.559184818211222 0 0 0
3461 1 97.52577655117427 -1.0243312594519631 2.4763146263845037 0 0 0
2874 1 98.2844380223395 0.9452011788457968 0.39187441667494904 0 0 0
2871 1 98.86491168542524 -1.1051869499836466 4.933218297275727 0 0 -1
651 1 101.53554926066955 -1.026056967345657 3.8941268820151382 -1 0 0
2872 1 100.63155672170593 1.0949952642600178 5.760338840120244 0 0 -1
2873 1 100.25485105775799 -0.8121444604078554 1.4591218955315954 0 0 0
3462 1 99.38467030994106 1.0878283907150674 3.0790108928499498 0 0 0
27 1 -0.845474549613364 3.123387859669278 -0.05437829439788424 0 0 0
29 1 0.33620773746990373 3.4284023746482166 2.2689382441913755 0 0 0
666 1 1.4622342842169669 3.4561469178947544 4.986951450724153 0 0 0
31 1 3.017070590509981 3.4903087815605476 1.3443840694908953 0 0 0
33 1 4.036547422835962 3.8885026283239403 4.1759786077156305 0 0 0
35 1 6.139252691340287 3.804908344943134 1.7752420690754382 0 0 0
36 1 8.316097076092 4.955561817748606 0.20251920642215976 0 0 0
37 1 8.857385952079023 3.5471869987272626 2.504132792414699 0 0 0
668 1 6.432669258185948 3.1014534561620586 5.216074867621177 0 0 0
669 1 10.093538538305026 4.868426232921998 4.497430412015875 0 0 0
39 1 10.23203155006019 2.807716644352017 0.15384538217479382 0 0 0
40 1 13.189933174185148 5.302419740422403 0.05173078795131433 0 0 0
42 1 10.91404334939785 4.934823358556862 1.8300295790844507 0 0 0
670 1 10.666695503045402 2.1818967885359672 3.850351115644489 0 0 0
671 1 12.905162415337907 3.977163712222435 3.725532139017869 0 0 0
46 1 14.994527135909436 3.251890195080226 6.060444743806291 0 0 -1
69 1 15.644748155935964 5.581070765546916 4.742462328473908 0 0 -1
685 1 17.579278122700075 6.02839055214176 3.087324148941206 0 0 0
672 1 17.12647492885937 3.239364268627713 4.287427597662491 0 0 0
44 1 17.783669095892332 5.002366995329439 0.35772309683414033 0 0 0
45 1 17.12737347680678 2.41606352798176 1.3552902107469758 0 0 0
50 1 19.852197811269146 4.07146280420165 2.169918638541067 0 0 0
73 1 19.50849436258566 2.976562818522771 5.7186203497554535 0 0 -1
49 1 21.654307147041052 1.9187416345263428 1.455192242856616 0 0 0
675 1 21.694323095266544 3.4472833050884137 4.278279060250133 0 0 0
75 1 21.69756156407008 4.519700301425788 0.46931342479054994 0 0 0
676 1 23.413881693122942 1.0800934461327611 3.379321270664202 0 0 0
51 1 23.841559172057966 2.405992036302041 5.945839163804533 0 0 -1
52 1 23.67243638447177 3.558613213413551 2.3553354333261827 0 0 0
1001 1 25.891101322980937 1.6075188725443055 1.4462263276744947 0 0 0
1588 1 26.02114404470187 2.8420780664884564 4.06248861854169 0 0 0
1000 1 26.010976778710482 4.219893591697308 0.06835994875882115 0 0 0
1002 1 28.341247854630588 2.682509779998563 5.715474618551717 0 0 -1
1005 1 27.85180425670091 3.41535884741739 2.3744101076723654 0 0 0
1004 1 29.977000370586044 1.4621172412429169 1.26271316564317 0 0 0
1590 1 30.124275872598034 2.9231515980602385 3.7988811227957404 0 0 0
1003 1 30.53735843933879 3.927476348574408 0.039058219030378954 0 0 0
1601 1 28.039325498368065 5.119271412692987 4.612850793988585 0 0 0
1591 1 31.913180768593797 0.5988341998468778 3.0441747639851378 0 0 0
1006 1 32.509774099197344 2.039257610982439 5.341353133198085 0 0 -1
1008 1 34.529228499383414 1.383003504562189 1.3937045465289177 0 0 0
1009 1 32.46016505227635 3.162875692989285 1.905942259503048 0 0 0
1007 1 34.739408421071055 3.911063087329315 0.1586701342506754 0 0 0
1592 1 34.84763838994633 2.594277882649199 3.8886850013728083 0 0 0
1010 1 36.91674606932671 2.1093907374975354 6.064403510167574 0 0 -1
1013 1 36.90880819975259 3.4024392396926544 2.069797502557562 0 0 0
1605 1 36.8031828731218 4.745561309170602 4.934776237052669 0 0 0
1012 1 38.97976496527268 1.3282717092753664 1.501370282313399 0 0 0
1594 1 38.849991632103546 2.75950154911079 4.251546632556012 0 0 0
1011 1 39.27427561846908 4.09278951638831 0.12162850461808969 0 0 0
1014 1 40.84907305896878 2.0927184527474774 6.029055233839306 0 0 -1
1017 1 41.23583715430849 3.1265664460607105 2.44147197711541 0 0 0
1607 1 41.366794432961704 4.535668519105322 4.959674683683811 0 0 0
1596 1 43.36883237463829 2.550828251367906 4.27169595886177 0 0 0
1015 1 43.521261495814244 3.9437917934489786 0.3909592596182836 0 0 0
997 1 45.317475607004255 1.6561126341952717 5.879802551558652 0 0 -1
1021 1 43.58936819360441 4.9262352238989555 2.918032168537462 0 0 0
1018 1 45.61946531479887 4.458058653469584 5.141019800399245 0 0 -1
1598 1 45.43128381744358 2.8410841438461345 2.324893048854433 0 0 0
1044 1 46.899686279358015 5.0020940573775 1.755040679692783 0 0 0
1020 1 47.85937290484575 2.7413027149009066 0.056640080675470994 0 0 0
1019 1 48.07316899012891 4.996794608305733 4.088954497434791 0 0 -1
1599 1 48.32140321854844 2.8275213015509584 2.5915592578620372 0 0 0
1023 1 49.11884300244772 5.190171206741724 0.19385649251501047 0 0 0
1022 1 49.97051956691712 2.993084259653153 4.66828196551399 0 0 -1
2539 1 50.77714085358222 4.944087207277724 2.699489397859098 0 0 0
1902 1 51.96705239520371 5.056692717072662 5.425117406360972 0 0 -1
1903 1 51.239623314377525 2.8672490350361457 1.0470905908392745 0 0 0
2540 1 52.513549898980315 2.858119611820377 3.215213027678337 0 0 0
1907 1 53.30919227448693 4.91005760743144 1.6223421834267073 0 0 0
1904 1 53.990126695421395 2.8000740186393935 5.562121774361915 0 0 -1
1906 1 54.859592099402235 2.625544869171285 2.073502632857396 0 0 0
2541 1 54.56897608332222 4.847378973291252 4.178010224219344 0 0 0
2542 1 56.667480956328085 1.985497060183338 4.895430528488006 0 0 0
1908 1 57.52972851449875 2.9045406014772803 2.197703085630538 0 0 0
1910 1 59.77777912231016 2.6053201365015646 3.748504784565305 0 0 0
1905 1 56.30421683335339 4.771062899072246 0.6721530915423893 0 0 0
1911 1 57.40926751773061 4.549368584695713 4.383152893904622 0 0 0
1909 1 61.724497741332485 5.289223533736296 3.0350658120102274 0 0 0
1912 1 61.348606722355704 3.0282677162060603 1.2818772567856935 0 0 0
2543 1 59.24858512546813 4.74707797799403 2.1177064702934167 0 0 1
1915 1 60.21415475407246 5.268493477617034 5.234848242858889 0 0 0
2544 1 62.11019763779116 3.25566331142457 4.889091346296528 0 0 0
1913 1 62.5481484325156 5.242904274950175 0.3085508877189266 0 0 0
1914 1 64.02442830761967 3.323302321247013 2.3094031428150408 0 0 0
2545 1 64.33053983865246 5.391735728112224 4.1817263145184 0 0 0
1916 1 65.47450259363 3.256990660900172 -0.07875430645119921 0 0 0
1919 1 65.542385294467 5.610983398056609 1.4268541989731294 0 0 0
2546 1 66.64390457904504 3.506319157408396 3.6272100041266206 0 0 0
1917 1 67.16522238872211 5.396622065471975 5.4064247919809585 0 0 -1
1918 1 68.17159657831562 3.560842974614414 1.0871063364863252 0 0 0
2547 1 68.13043361343972 5.976016673970564 2.7213122545230823 0 0 0
1920 1 69.71287990382581 3.4275282565784337 4.91333218348464 0 0 -1
1922 1 72.26133130205852 3.968517716234258 5.862459472935825 0 0 -1
2548 1 70.7069852912237 3.96167700262645 2.373957606034039 0 0 0
1924 1 73.22547339759016 4.033288365793219 3.1303635488991493 0 0 -1
1898 1 74.63052411517894 2.3464213681536537 4.836061634479724 0 0 -1
1901 1 75.09607206542458 4.2102314629173545 1.1960230147689748 0 0 0
1926 1 75.9299734801683 4.72392376101255 3.875805311310725 0 0 -1
1899 1 77.18134633776663 1.6460858984241562 3.7996431895862233 0 0 -1
2854 1 77.2570513726015 3.7232076483700993 5.715769893653172 0 0 -1
2875 1 79.49172300161432 3.8149043801772464 4.408022423144175 0 0 -1
3463 1 78.08412431458044 3.7340927981439567 2.0466053075787185 0 0 0
2877 1 80.53446136475118 3.5411919761812163 0.9279217511234745 0 0 0
2879 1 83.16513626319882 3.2998935026868574 5.645663784670493 0 0 -1
3465 1 81.90215126852588 3.8730058586961915 3.4057999157603933 0 0 0
2881 1 84.66021331092008 3.2525277532497254 2.747841708270939 0 0 0
2883 1 87.12144978054728 3.5103435821203375 1.2611562061220842 0 0 0
3467 1 85.78292333875045 3.5621572485916673 5.173937796511661 0 0 0
2885 1 88.50809838261299 3.3235135582408226 3.7431498276148685 0 0 0
3469 1 89.75031925702807 3.3613004938572564 0.03622384551989674 0 0 1
2887 1 91.032554707291 3.4020438668041217 2.7128008683640625 0 0 0
2889 1 93.69274476684488 3.28963209708924 1.2451526158244997 0 0 0
2891 1 92.00913087872856 3.6241784206492005 5.090898562246623 0 0 -1
3471 1 94.7304687033413 3.3681281150164644 3.840764105230173 0 0 0
2893 1 96.11237715580471 3.1192779437833815 -0.05550008823821825 0 0 0
3473 1 97.62672201098042 3.142825121973769 2.2042124459939934 0 0 0
2917 1 95.56444988263041 5.330139813155908 1.7811910218733007 0 0 0
664 1 101.72651394532139 3.110851071751158 3.6265502519111523 -1 0 0
2895 1 98.95604863695988 2.9538726111719864 4.687962575424657 0 0 -1
2896 1 101.1209072481552 5.020552485717375 5.438584972474654 0 0 -1
2897 1 100.35785697123212 2.8378000740978013 1.3346580225752187 0 0 0
665 1 -0.4203459184146945 5.233603759170502 4.388863453481709 0 0 0
28 1 0.5451192594181764 5.57720920935565 0.6701630912958642 0 0 0
53 1 -1.3330038343177264 8.550718363022314 1.1930283512623123 0 0 0
55 1 0.7513955166903075 7.776886190339589 2.7617808223546074 0 0 0
679 1 0.1797667841453836 7.761721540720481 5.446465082809435 0 0 0
34 1 2.156495689617616 5.682321889199668 3.0289356332558506 0 0 0
667 1 2.8731849789219712 5.6476634434468895 5.793239812658161 0 0 0
60 1 2.991994688588033 7.657869947442858 1.3360019117268456 0 0 0
32 1 4.950764188107742 6.175901245932655 2.366131608057823 0 0 0
57 1 5.233090266436104 8.960247933354724 0.8422299715260199 0 0 0
38 1 7.284684998921952 5.429881771099503 3.6366543918219976 0 0 0
58 1 6.101250878131296 8.10991462362571 3.951063770777356 0 0 0
59 1 5.531606182644241 5.514813227633042 5.710495161983919 0 0 0
61 1 7.414932478252968 7.308061367848683 1.3766419109148 0 0 0
681 1 8.661801547377019 7.546042398747462 5.077144709029526 0 0 0
63 1 10.011384118273824 7.218630198702993 2.84341233001047 0 0 0
65 1 10.99554998630899 7.023474469592822 0.13964783856159818 0 0 0
68 1 11.964330759240623 8.880985522602218 2.1359197411914908 0 0 0
683 1 13.828747463332153 6.717217839567086 2.3608192536042156 0 0 0
66 1 13.672985313180588 8.098542836257003 5.86671261662193 0 0 -1
67 1 15.290614284243667 4.595795208264527 2.2048213230835807 0 0 0
684 1 15.75784142167215 8.288678736780437 3.7903183355432972 0 0 0
72 1 16.058102557997646 6.992536810320836 1.022938671890719 0 0 0
673 1 17.996932049740437 7.719539974259787 5.276752105435017 0 0 0
71 1 20.104344478991507 6.864158555131553 0.9779234441058593 0 0 0
687 1 19.864311065379887 5.548220839620431 4.755936430783618 0 0 0
70 1 20.123061685873935 8.126553297153242 3.601592898237395 0 0 -1
689 1 21.864450310551167 5.918056541689556 2.800403998436201 0 0 0
74 1 21.982132461691503 7.025418292970032 5.29915984925633 0 0 -1
688 1 22.45800934681158 8.733020980081722 1.34901097409124 0 0 0
78 1 23.851475116417532 6.376119601579985 1.052926678742227 0 0 0
77 1 24.061227147353993 5.066508648329194 4.723068988038206 0 0 -1
1600 1 24.267888482307765 7.461087300958543 3.3265648698985535 0 0 0
1025 1 25.963076804271566 5.515091985685653 2.660074510712793 0 0 0
1024 1 26.13485674300113 6.804884980507554 5.421262011603745 0 0 -1
1049 1 26.071575566718458 8.291772108106828 1.5567780129092825 0 0 0
1026 1 28.33016771721961 5.931404945147753 0.9900588205868812 0 0 0
1602 1 30.706301710027518 6.685658250164375 5.263997711488727 0 0 0
1028 1 30.388742439796246 5.667329360810784 2.491717625836683 0 0 0
1027 1 30.680413855554477 8.25711975437492 1.3178823247356943 0 0 0
1033 1 32.618539920406924 8.709961418276889 5.372836925455966 0 0 0
1030 1 32.71462705461619 5.583963171682887 0.489316882593715 0 0 0
1603 1 32.68452444211884 4.610322999031842 4.321580369765548 0 0 0
1032 1 34.827764350157 5.398928146983341 2.482820611895684 0 0 0
1604 1 34.89232341624917 6.706754619148917 5.143071969104636 0 0 0
1031 1 34.347984476097345 7.927214123789776 1.2212065947953001 0 0 0
1034 1 37.248448566201255 6.510421271476256 0.803785507484029 0 0 0
1037 1 37.037472409963726 7.342053474936499 3.4746714951635385 0 0 0
1036 1 39.344755585623325 5.236625092805055 2.5102703834046394 0 0 0
1606 1 39.17313111393956 6.452039655333845 5.011800452204735 0 0 0
1038 1 41.5922997557497 6.029209113708172 1.1435569255139244 0 0 0
1041 1 41.14682487241832 7.338476067131676 3.4601732603656057 0 0 0
1035 1 39.320281000163085 8.167620795446075 1.530336712794717 0 0 0
1040 1 42.98546051242002 6.705508574666348 5.106386866659343 0 0 0
1042 1 44.744357665677235 6.5608921090229835 1.0132447334821646 0 0 0
1064 1 43.74828295566891 8.883779050367067 3.071342878985153 0 0 0
1039 1 42.18535181046552 8.53717700271211 0.9829187388832896 0 0 0
1609 1 45.63063761927812 6.783096639764651 3.929449167428981 0 0 0
1043 1 47.15172072538379 6.852781746210626 6.061955903275002 0 0 -1
1608 1 45.059063603924066 8.715540855527223 5.539457964575752 0 0 0
1045 1 46.29705114674858 8.814691204404593 1.6351654967711013 0 0 0
1610 1 47.86067235813327 8.991177215293773 4.214058471498621 0 0 0
1046 1 49.825326635570306 7.034997447189811 4.588120698067711 0 0 -1
1611 1 48.71193279253077 7.203135237471427 2.25928389036076 0 0 0
1929 1 51.61481872174544 6.990446900719432 1.1310853597736654 0 0 0
1047 1 49.28067368278148 9.163065418253383 0.33983770751448245 0 0 0
2553 1 52.67988205233558 7.059843723309964 3.3886162112788996 0 0 0
1930 1 53.712125991890396 7.034634232618217 5.758990100810626 0 0 -1
1932 1 55.14600537734869 7.18602199228255 2.0280823489190194 0 0 0
2555 1 56.53339817199876 7.183077737183444 4.461123475695047 0 0 0
1934 1 57.94480107333818 7.1686345553018445 1.157928793975024 0 0 0
2556 1 58.3211539079809 9.351098778582033 4.9674146296087285 0 0 0
1931 1 55.71818810662924 9.035803285800384 0.1900414942955802 0 0 0
1936 1 59.15598703332082 7.298816990451241 3.568131465540191 0 0 0
1938 1 60.86416215923292 7.2656090868392 1.1765198375168644 0 0 0
2557 1 61.824506647773894 7.363912554797924 4.791917505139417 0 0 0
1941 1 60.84101374410321 9.63257457087147 3.9161123801398823 0 0 0
1939 1 62.601622262183085 9.539912514548664 0.3976066852514598 0 0 0
1935 1 59.62965485388438 9.389243562659903 1.331391053254121 0 0 0
1940 1 63.50421266428475 7.129662813112805 2.1786091873781883 0 0 0
1942 1 64.6907985619263 7.447894384505206 5.925991826377109 0 0 -1
2558 1 63.68394838981321 9.29145825536062 4.206831018933965 0 0 0
2559 1 66.05671476480073 7.682660257036549 3.7141314746796064 0 0 0
1945 1 65.08316419705955 9.410356010418472 1.7087827618486782 0 0 0
1944 1 67.41426419201545 7.803695551262731 1.00493518821072 0 0 0
1946 1 68.86465919347083 7.6180943267456005 4.666648484744913 0 0 -1
1923 1 69.77310448541203 5.695399739667125 0.19225223705598643 0 0 0
1921 1 71.04055609755476 6.069389956306974 3.932466848713524 0 0 -1
2549 1 72.54154680639228 6.152850914445038 1.3928159173128862 0 0 0
1948 1 71.70074226768519 8.146902752651702 5.770256978369018 0 0 -1
2561 1 70.04571832513292 8.16281428896748 2.1587241710463125 0 0 0
1950 1 72.75776066932542 8.29699371407712 3.269922052627743 0 0 -1
1927 1 73.83226274959802 6.181778457881627 5.134460225925841 0 0 -1
2550 1 74.99748731787352 7.052715554776928 2.680972882718266 0 0 0
2563 1 74.00475455043676 8.587404335534579 0.5480742933629487 0 0 0
1952 1 75.79748024669259 8.929284252095146 4.3812533950596935 0 0 -1
1925 1 76.85619321979009 6.959655252476905 5.683634997922378 0 0 -1
2878 1 79.02130023631186 5.730068619353892 0.7384346204505691 0 0 0
3464 1 80.35744308987005 6.047528373081296 2.949001031019355 0 0 0
2551 1 77.77816099181594 6.695009885661644 2.860022508359725 0 0 0
2899 1 79.18468621113824 7.858977140714659 4.977260756079774 0 0 -1
2901 1 80.54221559431483 8.151440850162901 1.1120218396953028 0 0 0
2882 1 82.77317512192637 6.0274835437756025 1.802859536697421 0 0 0
2876 1 81.14882693874316 5.8779127249091365 5.612528025393694 0 0 -1
3466 1 83.9237631445453 5.472394050376011 4.417986259707522 0 0 0
2903 1 83.4169601930423 7.993981823825466 5.644465702420378 0 0 -1
3477 1 81.85886692637628 8.141614341379611 3.44906483773523 0 0 0
2905 1 84.59476171226649 7.792135291841028 2.7570416392114705 0 0 0
2880 1 85.0750293356221 5.271391528936812 0.7389426015630023 0 0 0
2886 1 86.4244412488369 5.532478549031437 2.9625630131268097 0 0 0
3468 1 87.71020202594919 5.435636729625065 5.62541709044357 0 0 0
2907 1 87.04320721063458 7.764545596049691 1.3786481552410825 0 0 0
3479 1 86.07912921735814 7.681375001061314 5.05722433864977 0 0 0
2890 1 90.4780420437102 5.727363643510178 4.755026227397455 0 0 0
2884 1 89.09263603159717 5.49456404580491 1.9990349209396534 0 0 0
2909 1 88.51400768951287 7.52701101321259 3.8730978242035268 0 0 0
3481 1 89.65428881699162 7.64232117660714 0.11521364249055063 0 0 1
2911 1 91.21153141957565 7.536768185002842 2.7434968487761138 0 0 0
2888 1 91.69670743250086 5.874909838248671 0.7868897511762863 0 0 0
3470 1 94.14713188826569 5.363374537798633 5.643969709352363 0 0 0
2894 1 93.05216520537563 5.2811660171669965 3.0646630597668847 0 0 0
2913 1 92.49108683261066 7.949038535134298 5.236775410687054 0 0 0
2915 1 93.79898761095681 7.697549537282486 1.4672154186132895 0 0 0
3472 1 94.98242860703232 7.297767906935444 4.006069926493916 0 0 0
2892 1 96.89220168025788 5.089591377667682 4.41029520151084 0 0 -1
2898 1 98.17352493152593 5.252612946290156 0.5654524147064695 0 0 0
3483 1 96.69840780073838 7.3215806810932715 5.948754206756467 0 0 0
3485 1 97.64033930165837 7.336778092367709 2.61951252832816 0 0 0
30 1 101.92600173322721 5.11855880893756 1.8093634433248909 -1 0 0
3474 1 99.33535788306405 5.0470122136657665 3.1879236292976083 0 0 0
2919 1 99.38746138163201 7.3103705643145105 4.8775227809212005 0 0 -1
677 1 -1.932038531221309 7.268498682447545 3.6959337746271324 0 0 0
2921 1 100.0268540299898 6.981887186592353 1.2279219438720936 0 0 0
678 1 -1.5848778907486656 9.635182483267856 4.715203790568904 0 0 0
54 1 0.7556248657949323 10.086936152849411 0.5655153333411488 0 0 0
79 1 -1.1756269233596572 11.034193349615972 2.4917567285796856 0 0 0
81 1 1.1845832359753228 10.668287136577298 4.144922101643648 0 0 0
690 1 -0.959385689959921 11.978886102662214 5.938325124907191 0 0 0
80 1 1.2401691116438078 12.599881230507318 1.947369863763171 0 0 0
692 1 3.0791746733821928 8.104271868721513 4.544859451915278 0 0 0
83 1 2.937226648999765 10.294493055152502 2.153232115450899 0 0 0
84 1 3.804249156131574 10.779702315789882 5.047127748968325 0 0 -1
87 1 5.468336124942417 11.842043596646965 1.0225432646524728 0 0 0
85 1 5.553708902107384 10.68722530945551 3.235517288412042 0 0 0
64 1 8.33479603462801 9.634740706243752 2.988026039984619 0 0 0
680 1 7.163223963100037 10.131910184851005 5.434033469324924 0 0 0
694 1 9.516396470932499 11.587117714606828 5.2161282212727 0 0 0
90 1 7.628715858410676 12.442569062889081 2.841166501262875 0 0 0
682 1 10.94923609562087 9.326500480145114 4.626090362060855 0 0 0
62 1 9.636026582314338 9.643936841172353 0.791167475975389 0 0 0
89 1 10.77976419171727 11.348363227786535 2.7363010585135252 0 0 0
91 1 12.108312755058304 11.050328010395674 0.2248264574847214 0 0 0
94 1 13.164087308038882 12.823531179966846 1.7515185508883229 0 0 0
696 1 13.865252901111047 10.123031391891857 4.059418444533098 0 0 0
93 1 14.489626029569216 9.640033037950612 1.5638634138964036 0 0 0
95 1 16.530120443323003 10.173811917526887 -0.035123845212418583 0 0 0
698 1 16.42590489831538 10.961697219664748 2.635210903839865 0 0 0
98 1 14.811607523360003 12.183373864726057 6.090312521458649 0 0 -1
76 1 19.623993409079063 9.89451836360456 -0.06021083304081088 0 0 0
686 1 17.946881055167662 8.820369439020954 1.8793600196313796 0 0 0
97 1 19.32280984207605 10.692930951064593 3.758156458343878 0 0 -1
699 1 18.28076542456325 12.050921733268925 1.1002925597631388 0 0 0
700 1 21.354782472319762 11.072424569478823 1.7981506535822331 0 0 0
99 1 22.056856916579793 9.808060780548294 4.808084964798824 0 0 -1
101 1 23.713732007427478 11.385773891801616 0.2810677662378919 0 0 0
702 1 24.36390231517146 10.142915600965807 3.0239921242931698 0 0 0
102 1 20.912752733634118 12.290576161163482 5.679664335075994 0 0 -1
103 1 24.459267957747617 9.127405280813727 5.793943080587372 0 0 -1
1613 1 26.64586957423283 9.459944730160565 4.036798740579833 0 0 0
1612 1 26.464397343914204 10.981661227181483 1.1090786402182027 0 0 0
1050 1 28.99646691617677 10.309105530334055 1.9052968012760938 0 0 0
1053 1 27.296752279737415 12.73407407827265 3.057822985130357 0 0 0
1029 1 28.24186793677855 7.453350176533675 3.142395596483585 0 0 0