# LAMMPS data file written by OVITO Basic 3.8.4

6610 atoms
6 atom types

-0.307406375 29.212593625 xlo xhi
-0.111927032 30.488072968 ylo yhi
0.0 157.0 zlo zhi

Masses

1 4.0026  # he
2 12.01115  # cp
3 12.01115  # c=
4 1.00797  # h
5 12.01115  # c3
6 12.01115  # c2

Atoms  # full

1 1 1 0.0 1.229753289 3.549992316 1.399999976 0 0 0
2 1 1 0.0 1.229753289 0.709998463 1.399999976 0 0 0
3 1 1 0.0 2.459506578 1.419996926 1.399999976 0 0 0
4 1 1 0.0 3.689259868 3.549992316 1.399999976 0 0 0
5 1 1 0.0 2.459506578 2.839993852 1.399999976 0 0 0
6 1 1 0.0 3.689259868 0.709998463 1.399999976 0 0 0
7 1 1 0.0 4.919013157 1.419996926 1.399999976 0 0 0
8 1 1 0.0 6.148766446 3.549992316 1.399999976 0 0 0
9 1 1 0.0 4.919013157 2.839993852 1.399999976 0 0 0
10 1 1 0.0 6.148766446 0.709998463 1.399999976 0 0 0
11 1 1 0.0 7.378519735 1.419996926 1.399999976 0 0 0
12 1 1 0.0 8.608273024 3.549992316 1.399999976 0 0 0
13 1 1 0.0 7.378519735 2.839993852 1.399999976 0 0 0
14 1 1 0.0 8.608273024 0.709998463 1.399999976 0 0 0
15 1 1 0.0 9.838026313 1.419996926 1.399999976 0 0 0
16 1 1 0.0 11.067779603 3.549992316 1.399999976 0 0 0
17 1 1 0.0 9.838026313 2.839993852 1.399999976 0 0 0
18 1 1 0.0 11.067779603 0.709998463 1.399999976 0 0 0
19 1 1 0.0 12.297532892 1.419996926 1.399999976 0 0 0
20 1 1 0.0 13.527286181 3.549992316 1.399999976 0 0 0
21 1 1 0.0 12.297532892 2.839993852 1.399999976 0 0 0
22 1 1 0.0 13.527286181 0.709998463 1.399999976 0 0 0
23 1 1 0.0 14.75703947 1.419996926 1.399999976 0 0 0
24 1 1 0.0 15.986792759 3.549992316 1.399999976 0 0 0
25 1 1 0.0 14.75703947 2.839993852 1.399999976 0 0 0
26 1 1 0.0 15.986792759 0.709998463 1.399999976 0 0 0
27 1 1 0.0 17.216546048 1.419996926 1.399999976 0 0 0
28 1 1 0.0 18.446299338 3.549992316 1.399999976 0 0 0
29 1 1 0.0 17.216546048 2.839993852 1.399999976 0 0 0
30 1 1 0.0 18.446299338 0.709998463 1.399999976 0 0 0
31 1 1 0.0 19.676052627 1.419996926 1.399999976 0 0 0
32 1 1 0.0 20.905805916 3.549992316 1.399999976 0 0 0
33 1 1 0.0 19.676052627 2.839993852 1.399999976 0 0 0
34 1 1 0.0 20.905805916 0.709998463 1.399999976 0 0 0
35 1 1 0.0 22.135559205 1.419996926 1.399999976 0 0 0
36 1 1 0.0 23.365312494 3.549992316 1.399999976 0 0 0
37 1 1 0.0 22.135559205 2.839993852 1.399999976 0 0 0
38 1 1 0.0 23.365312494 0.709998463 1.399999976 0 0 0
39 1 1 0.0 24.595065783 1.419996926 1.399999976 0 0 0
40 1 1 0.0 25.824819073 3.549992316 1.399999976 0 0 0
41 1 1 0.0 24.595065783 2.839993852 1.399999976 0 0 0
42 1 1 0.0 25.824819073 0.709998463 1.399999976 0 0 0
43 1 1 0.0 27.054572362 1.419996926 1.399999976 0 0 0
44 1 1 0.0 28.284325651 3.549992316 1.399999976 0 0 0
45 1 1 0.0 27.054572362 2.839993852 1.399999976 0 0 0
46 1 1 0.0 28.284325651 0.709998463 1.399999976 0 0 0
47 1 1 0.0 1.229753289 7.809983094 1.399999976 0 0 0
48 1 1 0.0 1.229753289 4.969989242 1.399999976 0 0 0
49 1 1 0.0 2.459506578 5.679987705 1.399999976 0 0 0
50 1 1 0.0 3.689259868 7.809983094 1.399999976 0 0 0
51 1 1 0.0 2.459506578 7.099984631 1.399999976 0 0 0
52 1 1 0.0 3.689259868 4.969989242 1.399999976 0 0 0
53 1 1 0.0 4.919013157 5.679987705 1.399999976 0 0 0
54 1 1 0.0 6.148766446 7.809983094 1.399999976 0 0 0
55 1 1 0.0 4.919013157 7.099984631 1.399999976 0 0 0
56 1 1 0.0 6.148766446 4.969989242 1.399999976 0 0 0
57 1 1 0.0 7.378519735 5.679987705 1.399999976 0 0 0
58 1 1 0.0 8.608273024 7.809983094 1.399999976 0 0 0
59 1 1 0.0 7.378519735 7.099984631 1.399999976 0 0 0
60 1 1 0.0 8.608273024 4.969989242 1.399999976 0 0 0
61 1 1 0.0 9.838026313 5.679987705 1.399999976 0 0 0
62 1 1 0.0 11.067779603 7.809983094 1.399999976 0 0 0
63 1 1 0.0 9.838026313 7.099984631 1.399999976 0 0 0
64 1 1 0.0 11.067779603 4.969989242 1.399999976 0 0 0
65 1 1 0.0 12.297532892 5.679987705 1.399999976 0 0 0
66 1 1 0.0 13.527286181 7.809983094 1.399999976 0 0 0
67 1 1 0.0 12.297532892 7.099984631 1.399999976 0 0 0
68 1 1 0.0 13.527286181 4.969989242 1.399999976 0 0 0
69 1 1 0.0 14.75703947 5.679987705 1.399999976 0 0 0
70 1 1 0.0 15.986792759 7.809983094 1.399999976 0 0 0
71 1 1 0.0 14.75703947 7.099984631 1.399999976 0 0 0
72 1 1 0.0 15.986792759 4.969989242 1.399999976 0 0 0
73 1 1 0.0 17.216546048 5.679987705 1.399999976 0 0 0
74 1 1 0.0 18.446299338 7.809983094 1.399999976 0 0 0
75 1 1 0.0 17.216546048 7.099984631 1.399999976 0 0 0
76 1 1 0.0 18.446299338 4.969989242 1.399999976 0 0 0
77 1 1 0.0 19.676052627 5.679987705 1.399999976 0 0 0
78 1 1 0.0 20.905805916 7.809983094 1.399999976 0 0 0
79 1 1 0.0 19.676052627 7.099984631 1.399999976 0 0 0
80 1 1 0.0 20.905805916 4.969989242 1.399999976 0 0 0
81 1 1 0.0 22.135559205 5.679987705 1.399999976 0 0 0
82 1 1 0.0 23.365312494 7.809983094 1.399999976 0 0 0
83 1 1 0.0 22.135559205 7.099984631 1.399999976 0 0 0
84 1 1 0.0 23.365312494 4.969989242 1.399999976 0 0 0
85 1 1 0.0 24.595065783 5.679987705 1.399999976 0 0 0
86 1 1 0.0 25.824819073 7.809983094 1.399999976 0 0 0
87 1 1 0.0 24.595065783 7.099984631 1.399999976 0 0 0
88 1 1 0.0 25.824819073 4.969989242 1.399999976 0 0 0
89 1 1 0.0 27.054572362 5.679987705 1.399999976 0 0 0
90 1 1 0.0 28.284325651 7.809983094 1.399999976 0 0 0
91 1 1 0.0 27.054572362 7.099984631 1.399999976 0 0 0
92 1 1 0.0 28.284325651 4.969989242 1.399999976 0 0 0
93 1 1 0.0 1.229753289 12.069973873 1.399999976 0 0 0
94 1 1 0.0 1.229753289 9.22998002 1.399999976 0 0 0
95 1 1 0.0 2.459506578 9.939978483 1.399999976 0 0 0
96 1 1 0.0 3.689259868 12.069973873 1.399999976 0 0 0
97 1 1 0.0 2.459506578 11.35997541 1.399999976 0 0 0
98 1 1 0.0 3.689259868 9.22998002 1.399999976 0 0 0
99 1 1 0.0 4.919013157 9.939978483 1.399999976 0 0 0
100 1 1 0.0 6.148766446 12.069973873 1.399999976 0 0 0
101 1 1 0.0 4.919013157 11.35997541 1.399999976 0 0 0
102 1 1 0.0 6.148766446 9.22998002 1.399999976 0 0 0
103 1 1 0.0 7.378519735 9.939978483 1.399999976 0 0 0
104 1 1 0.0 8.608273024 12.069973873 1.399999976 0 0 0
105 1 1 0.0 7.378519735 11.35997541 1.399999976 0 0 0
106 1 1 0.0 8.608273024 9.22998002 1.399999976 0 0 0
107 1 1 0.0 9.838026313 9.939978483 1.399999976 0 0 0
108 1 1 0.0 11.067779603 12.069973873 1.399999976 0 0 0
109 1 1 0.0 9.838026313 11.35997541 1.399999976 0 0 0
110 1 1 0.0 11.067779603 9.22998002 1.399999976 0 0 0
111 1 1 0.0 12.297532892 9.939978483 1.399999976 0 0 0
112 1 1 0.0 13.527286181 12.069973873 1.399999976 0 0 0
113 1 1 0.0 12.297532892 11.35997541 1.399999976 0 0 0
114 1 1 0.0 13.527286181 9.22998002 1.399999976 0 0 0
115 1 1 0.0 14.75703947 9.939978483 1.399999976 0 0 0
116 1 1 0.0 15.986792759 12.069973873 1.399999976 0 0 0
117 1 1 0.0 14.75703947 11.35997541 1.399999976 0 0 0
118 1 1 0.0 15.986792759 9.22998002 1.399999976 0 0 0
119 1 1 0.0 17.216546048 9.939978483 1.399999976 0 0 0
120 1 1 0.0 18.446299338 12.069973873 1.399999976 0 0 0
121 1 1 0.0 17.216546048 11.35997541 1.399999976 0 0 0
122 1 1 0.0 18.446299338 9.22998002 1.399999976 0 0 0
123 1 1 0.0 19.676052627 9.939978483 1.399999976 0 0 0
124 1 1 0.0 20.905805916 12.069973873 1.399999976 0 0 0
125 1 1 0.0 19.676052627 11.35997541 1.399999976 0 0 0
126 1 1 0.0 20.905805916 9.22998002 1.399999976 0 0 0
127 1 1 0.0 22.135559205 9.939978483 1.399999976 0 0 0
128 1 1 0.0 23.365312494 12.069973873 1.399999976 0 0 0
129 1 1 0.0 22.135559205 11.35997541 1.399999976 0 0 0
130 1 1 0.0 23.365312494 9.22998002 1.399999976 0 0 0
131 1 1 0.0 24.595065783 9.939978483 1.399999976 0 0 0
132 1 1 0.0 25.824819073 12.069973873 1.399999976 0 0 0
133 1 1 0.0 24.595065783 11.35997541 1.399999976 0 0 0
134 1 1 0.0 25.824819073 9.22998002 1.399999976 0 0 0
135 1 1 0.0 27.054572362 9.939978483 1.399999976 0 0 0
136 1 1 0.0 28.284325651 12.069973873 1.399999976 0 0 0
137 1 1 0.0 27.054572362 11.35997541 1.399999976 0 0 0
138 1 1 0.0 28.284325651 9.22998002 1.399999976 0 0 0
139 1 1 0.0 1.229753289 16.329964651 1.399999976 0 0 0
140 1 1 0.0 1.229753289 13.489970799 1.399999976 0 0 0
141 1 1 0.0 2.459506578 14.199969262 1.399999976 0 0 0
142 1 1 0.0 3.689259868 16.329964651 1.399999976 0 0 0
143 1 1 0.0 2.459506578 15.619966188 1.399999976 0 0 0
144 1 1 0.0 3.689259868 13.489970799 1.399999976 0 0 0
145 1 1 0.0 4.919013157 14.199969262 1.399999976 0 0 0
146 1 1 0.0 6.148766446 16.329964651 1.399999976 0 0 0
147 1 1 0.0 4.919013157 15.619966188 1.399999976 0 0 0
148 1 1 0.0 6.148766446 13.489970799 1.399999976 0 0 0
149 1 1 0.0 7.378519735 14.199969262 1.399999976 0 0 0
150 1 1 0.0 8.608273024 16.329964651 1.399999976 0 0 0
151 1 1 0.0 7.378519735 15.619966188 1.399999976 0 0 0
152 1 1 0.0 8.608273024 13.489970799 1.399999976 0 0 0
153 1 1 0.0 9.838026313 14.199969262 1.399999976 0 0 0
154 1 1 0.0 11.067779603 16.329964651 1.399999976 0 0 0
155 1 1 0.0 9.838026313 15.619966188 1.399999976 0 0 0
156 1 1 0.0 11.067779603 13.489970799 1.399999976 0 0 0
157 1 1 0.0 12.297532892 14.199969262 1.399999976 0 0 0
158 1 1 0.0 13.527286181 16.329964651 1.399999976 0 0 0
159 1 1 0.0 12.297532892 15.619966188 1.399999976 0 0 0
160 1 1 0.0 13.527286181 13.489970799 1.399999976 0 0 0
161 1 1 0.0 14.75703947 14.199969262 1.399999976 0 0 0
162 1 1 0.0 15.986792759 16.329964651 1.399999976 0 0 0
163 1 1 0.0 14.75703947 15.619966188 1.399999976 0 0 0
164 1 1 0.0 15.986792759 13.489970799 1.399999976 0 0 0
165 1 1 0.0 17.216546048 14.199969262 1.399999976 0 0 0
166 1 1 0.0 18.446299338 16.329964651 1.399999976 0 0 0
167 1 1 0.0 17.216546048 15.619966188 1.399999976 0 0 0
168 1 1 0.0 18.446299338 13.489970799 1.399999976 0 0 0
169 1 1 0.0 19.676052627 14.199969262 1.399999976 0 0 0
170 1 1 0.0 20.905805916 16.329964651 1.399999976 0 0 0
171 1 1 0.0 19.676052627 15.619966188 1.399999976 0 0 0
172 1 1 0.0 20.905805916 13.489970799 1.399999976 0 0 0
173 1 1 0.0 22.135559205 14.199969262 1.399999976 0 0 0
174 1 1 0.0 23.365312494 16.329964651 1.399999976 0 0 0
175 1 1 0.0 22.135559205 15.619966188 1.399999976 0 0 0
176 1 1 0.0 23.365312494 13.489970799 1.399999976 0 0 0
177 1 1 0.0 24.595065783 14.199969262 1.399999976 0 0 0
178 1 1 0.0 25.824819073 16.329964651 1.399999976 0 0 0
179 1 1 0.0 24.595065783 15.619966188 1.399999976 0 0 0
180 1 1 0.0 25.824819073 13.489970799 1.399999976 0 0 0
181 1 1 0.0 27.054572362 14.199969262 1.399999976 0 0 0
182 1 1 0.0 28.284325651 16.329964651 1.399999976 0 0 0
183 1 1 0.0 27.054572362 15.619966188 1.399999976 0 0 0
184 1 1 0.0 28.284325651 13.489970799 1.399999976 0 0 0
185 1 1 0.0 1.229753289 20.58995543 1.399999976 0 0 0
186 1 1 0.0 1.229753289 17.749961578 1.399999976 0 0 0
187 1 1 0.0 2.459506578 18.459960041 1.399999976 0 0 0
188 1 1 0.0 3.689259868 20.58995543 1.399999976 0 0 0
189 1 1 0.0 2.459506578 19.879956967 1.399999976 0 0 0
190 1 1 0.0 3.689259868 17.749961578 1.399999976 0 0 0
191 1 1 0.0 4.919013157 18.459960041 1.399999976 0 0 0
192 1 1 0.0 6.148766446 20.58995543 1.399999976 0 0 0
193 1 1 0.0 4.919013157 19.879956967 1.399999976 0 0 0
194 1 1 0.0 6.148766446 17.749961578 1.399999976 0 0 0
195 1 1 0.0 7.378519735 18.459960041 1.399999976 0 0 0
196 1 1 0.0 8.608273024 20.58995543 1.399999976 0 0 0
197 1 1 0.0 7.378519735 19.879956967 1.399999976 0 0 0
198 1 1 0.0 8.608273024 17.749961578 1.399999976 0 0 0
199 1 1 0.0 9.838026313 18.459960041 1.399999976 0 0 0
200 1 1 0.0 11.067779603 20.58995543 1.399999976 0 0 0
201 1 1 0.0 9.838026313 19.879956967 1.399999976 0 0 0
202 1 1 0.0 11.067779603 17.749961578 1.399999976 0 0 0
203 1 1 0.0 12.297532892 18.459960041 1.399999976 0 0 0
204 1 1 0.0 13.527286181 20.58995543 1.399999976 0 0 0
205 1 1 0.0 12.297532892 19.879956967 1.399999976 0 0 0
206 1 1 0.0 13.527286181 17.749961578 1.399999976 0 0 0
207 1 1 0.0 14.75703947 18.459960041 1.399999976 0 0 0
208 1 1 0.0 15.986792759 20.58995543 1.399999976 0 0 0
209 1 1 0.0 14.75703947 19.879956967 1.399999976 0 0 0
210 1 1 0.0 15.986792759 17.749961578 1.399999976 0 0 0
211 1 1 0.0 17.216546048 18.459960041 1.399999976 0 0 0
212 1 1 0.0 18.446299338 20.58995543 1.399999976 0 0 0
213 1 1 0.0 17.216546048 19.879956967 1.399999976 0 0 0
214 1 1 0.0 18.446299338 17.749961578 1.399999976 0 0 0
215 1 1 0.0 19.676052627 18.459960041 1.399999976 0 0 0
216 1 1 0.0 20.905805916 20.58995543 1.399999976 0 0 0
217 1 1 0.0 19.676052627 19.879956967 1.399999976 0 0 0
218 1 1 0.0 20.905805916 17.749961578 1.399999976 0 0 0
219 1 1 0.0 22.135559205 18.459960041 1.399999976 0 0 0
220 1 1 0.0 23.365312494 20.58995543 1.399999976 0 0 0
221 1 1 0.0 22.135559205 19.879956967 1.399999976 0 0 0
222 1 1 0.0 23.365312494 17.749961578 1.399999976 0 0 0
223 1 1 0.0 24.595065783 18.459960041 1.399999976 0 0 0
224 1 1 0.0 25.824819073 20.58995543 1.399999976 0 0 0
225 1 1 0.0 24.595065783 19.879956967 1.399999976 0 0 0
226 1 1 0.0 25.824819073 17.749961578 1.399999976 0 0 0
227 1 1 0.0 27.054572362 18.459960041 1.399999976 0 0 0
228 1 1 0.0 28.284325651 20.58995543 1.399999976 0 0 0
229 1 1 0.0 27.054572362 19.879956967 1.399999976 0 0 0
230 1 1 0.0 28.284325651 17.749961578 1.399999976 0 0 0
231 1 1 0.0 1.229753289 24.849946209 1.399999976 0 0 0
232 1 1 0.0 1.229753289 22.009952356 1.399999976 0 0 0
233 1 1 0.0 2.459506578 22.719950819 1.399999976 0 0 0
234 1 1 0.0 3.689259868 24.849946209 1.399999976 0 0 0
235 1 1 0.0 2.459506578 24.139947746 1.399999976 0 0 0
236 1 1 0.0 3.689259868 22.009952356 1.399999976 0 0 0
237 1 1 0.0 4.919013157 22.719950819 1.399999976 0 0 0
238 1 1 0.0 6.148766446 24.849946209 1.399999976 0 0 0
239 1 1 0.0 4.919013157 24.139947746 1.399999976 0 0 0
240 1 1 0.0 6.148766446 22.009952356 1.399999976 0 0 0
241 1 1 0.0 7.378519735 22.719950819 1.399999976 0 0 0
242 1 1 0.0 8.608273024 24.849946209 1.399999976 0 0 0
243 1 1 0.0 7.378519735 24.139947746 1.399999976 0 0 0
244 1 1 0.0 8.608273024 22.009952356 1.399999976 0 0 0
245 1 1 0.0 9.838026313 22.719950819 1.399999976 0 0 0
246 1 1 0.0 11.067779603 24.849946209 1.399999976 0 0 0
247 1 1 0.0 9.838026313 24.139947746 1.399999976 0 0 0
248 1 1 0.0 11.067779603 22.009952356 1.399999976 0 0 0
249 1 1 0.0 12.297532892 22.719950819 1.399999976 0 0 0
250 1 1 0.0 13.527286181 24.849946209 1.399999976 0 0 0
251 1 1 0.0 12.297532892 24.139947746 1.399999976 0 0 0
252 1 1 0.0 13.527286181 22.009952356 1.399999976 0 0 0
253 1 1 0.0 14.75703947 22.719950819 1.399999976 0 0 0
254 1 1 0.0 15.986792759 24.849946209 1.399999976 0 0 0
255 1 1 0.0 14.75703947 24.139947746 1.399999976 0 0 0
256 1 1 0.0 15.986792759 22.009952356 1.399999976 0 0 0
257 1 1 0.0 17.216546048 22.719950819 1.399999976 0 0 0
258 1 1 0.0 18.446299338 24.849946209 1.399999976 0 0 0
259 1 1 0.0 17.216546048 24.139947746 1.399999976 0 0 0
260 1 1 0.0 18.446299338 22.009952356 1.399999976 0 0 0
261 1 1 0.0 19.676052627 22.719950819 1.399999976 0 0 0
262 1 1 0.0 20.905805916 24.849946209 1.399999976 0 0 0
263 1 1 0.0 19.676052627 24.139947746 1.399999976 0 0 0
264 1 1 0.0 20.905805916 22.009952356 1.399999976 0 0 0
265 1 1 0.0 22.135559205 22.719950819 1.399999976 0 0 0
266 1 1 0.0 23.365312494 24.849946209 1.399999976 0 0 0
267 1 1 0.0 22.135559205 24.139947746 1.399999976 0 0 0
268 1 1 0.0 23.365312494 22.009952356 1.399999976 0 0 0
269 1 1 0.0 24.595065783 22.719950819 1.399999976 0 0 0
270 1 1 0.0 25.824819073 24.849946209 1.399999976 0 0 0
271 1 1 0.0 24.595065783 24.139947746 1.399999976 0 0 0
272 1 1 0.0 25.824819073 22.009952356 1.399999976 0 0 0
273 1 1 0.0 27.054572362 22.719950819 1.399999976 0 0 0
274 1 1 0.0 28.284325651 24.849946209 1.399999976 0 0 0
275 1 1 0.0 27.054572362 24.139947746 1.399999976 0 0 0
276 1 1 0.0 28.284325651 22.009952356 1.399999976 0 0 0
277 1 1 0.0 1.229753289 29.109936987 1.399999976 0 0 0
278 1 1 0.0 1.229753289 26.269943135 1.399999976 0 0 0
279 1 1 0.0 2.459506578 26.979941598 1.399999976 0 0 0
280 1 1 0.0 3.689259868 29.109936987 1.399999976 0 0 0
281 1 1 0.0 2.459506578 28.399938524 1.399999976 0 0 0
282 1 1 0.0 3.689259868 26.269943135 1.399999976 0 0 0
283 1 1 0.0 4.919013157 26.979941598 1.399999976 0 0 0
284 1 1 0.0 6.148766446 29.109936987 1.399999976 0 0 0
285 1 1 0.0 4.919013157 28.399938524 1.399999976 0 0 0
286 1 1 0.0 6.148766446 26.269943135 1.399999976 0 0 0
287 1 1 0.0 7.378519735 26.979941598 1.399999976 0 0 0
288 1 1 0.0 8.608273024 29.109936987 1.399999976 0 0 0
289 1 1 0.0 7.378519735 28.399938524 1.399999976 0 0 0
290 1 1 0.0 8.608273024 26.269943135 1.399999976 0 0 0
291 1 1 0.0 9.838026313 26.979941598 1.399999976 0 0 0
292 1 1 0.0 11.067779603 29.109936987 1.399999976 0 0 0
293 1 1 0.0 9.838026313 28.399938524 1.399999976 0 0 0
294 1 1 0.0 11.067779603 26.269943135 1.399999976 0 0 0
295 1 1 0.0 12.297532892 26.979941598 1.399999976 0 0 0
296 1 1 0.0 13.527286181 29.109936987 1.399999976 0 0 0
297 1 1 0.0 12.297532892 28.399938524 1.399999976 0 0 0
298 1 1 0.0 13.527286181 26.269943135 1.399999976 0 0 0
299 1 1 0.0 14.75703947 26.979941598 1.399999976 0 0 0
300 1 1 0.0 15.986792759 29.109936987 1.399999976 0 0 0
301 1 1 0.0 14.75703947 28.399938524 1.399999976 0 0 0
302 1 1 0.0 15.986792759 26.269943135 1.399999976 0 0 0
303 1 1 0.0 17.216546048 26.979941598 1.399999976 0 0 0
304 1 1 0.0 18.446299338 29.109936987 1.399999976 0 0 0
305 1 1 0.0 17.216546048 28.399938524 1.399999976 0 0 0
306 1 1 0.0 18.446299338 26.269943135 1.399999976 0 0 0
307 1 1 0.0 19.676052627 26.979941598 1.399999976 0 0 0
308 1 1 0.0 20.905805916 29.109936987 1.399999976 0 0 0
309 1 1 0.0 19.676052627 28.399938524 1.399999976 0 0 0
310 1 1 0.0 20.905805916 26.269943135 1.399999976 0 0 0
311 1 1 0.0 22.135559205 26.979941598 1.399999976 0 0 0
312 1 1 0.0 23.365312494 29.109936987 1.399999976 0 0 0
313 1 1 0.0 22.135559205 28.399938524 1.399999976 0 0 0
314 1 1 0.0 23.365312494 26.269943135 1.399999976 0 0 0
315 1 1 0.0 24.595065783 26.979941598 1.399999976 0 0 0
316 1 1 0.0 25.824819073 29.109936987 1.399999976 0 0 0
317 1 1 0.0 24.595065783 28.399938524 1.399999976 0 0 0
318 1 1 0.0 25.824819073 26.269943135 1.399999976 0 0 0
319 1 1 0.0 27.054572362 26.979941598 1.399999976 0 0 0
320 1 1 0.0 28.284325651 29.109936987 1.399999976 0 0 0
321 1 1 0.0 27.054572362 28.399938524 1.399999976 0 0 0
322 1 1 0.0 28.284325651 26.269943135 1.399999976 0 0 0
323 1 2 0.0 0.0 1.3 115.048236652 0 0 0
324 1 2 0.0 0.0 1.3 86.64851769 0 0 0
325 1 2 0.0 1.23000054 1.3 87.35865821 0 0 0
326 1 2 0.0 1.23000054 1.3 88.778939249 0 0 0
327 1 2 0.0 0.0 1.3 89.488236652 0 0 0
328 1 2 0.0 0.0 1.3 90.90851769 0 0 0
329 1 2 0.0 1.23000054 1.3 91.61865821 0 0 0
330 1 2 0.0 1.23000054 1.3 93.038939249 0 0 0
331 1 2 0.0 0.0 1.3 93.748236652 0 0 0
332 1 2 0.0 0.0 1.3 95.16851769 0 0 0
333 1 2 0.0 1.23000054 1.3 95.87865821 0 0 0
334 1 2 0.0 1.23000054 1.3 97.298939249 0 0 0
335 1 2 0.0 0.0 1.3 98.008236652 0 0 0
336 1 2 0.0 0.0 1.3 99.42851769 0 0 0
337 1 2 0.0 1.23000054 1.3 100.13865821 0 0 0
338 1 2 0.0 1.23000054 1.3 101.558939249 0 0 0
339 1 2 0.0 0.0 1.3 102.268236652 0 0 0
340 1 2 0.0 0.0 1.3 103.68851769 0 0 0
341 1 2 0.0 1.23000054 1.3 104.39865821 0 0 0
342 1 2 0.0 1.23000054 1.3 105.818939249 0 0 0
343 1 2 0.0 0.0 1.3 106.528236652 0 0 0
344 1 2 0.0 0.0 1.3 107.94851769 0 0 0
345 1 2 0.0 1.23000054 1.3 108.65865821 0 0 0
346 1 2 0.0 1.23000054 1.3 110.078939249 0 0 0
347 1 2 0.0 0.0 1.3 110.788236652 0 0 0
348 1 2 0.0 0.0 1.3 112.20851769 0 0 0
349 1 2 0.0 1.23000054 1.3 112.91865821 0 0 0
350 1 2 0.0 1.23000054 1.3 114.338939249 0 0 0
351 1 2 0.0 2.46 1.3 115.048236652 0 0 0
352 1 2 0.0 2.46 1.3 86.64851769 0 0 0
353 1 2 0.0 3.69000054 1.3 87.35865821 0 0 0
354 1 2 0.0 3.69000054 1.3 88.778939249 0 0 0
355 1 2 0.0 2.46 1.3 89.488236652 0 0 0
356 1 2 0.0 2.46 1.3 90.90851769 0 0 0
357 1 2 0.0 3.69000054 1.3 91.61865821 0 0 0
358 1 2 0.0 3.69000054 1.3 93.038939249 0 0 0
359 1 2 0.0 2.46 1.3 93.748236652 0 0 0
360 1 2 0.0 2.46 1.3 95.16851769 0 0 0
361 1 2 0.0 3.69000054 1.3 95.87865821 0 0 0
362 1 2 0.0 3.69000054 1.3 97.298939249 0 0 0
363 1 2 0.0 2.46 1.3 98.008236652 0 0 0
364 1 2 0.0 2.46 1.3 99.42851769 0 0 0
365 1 2 0.0 3.69000054 1.3 100.13865821 0 0 0
366 1 2 0.0 3.69000054 1.3 101.558939249 0 0 0
367 1 2 0.0 2.46 1.3 102.268236652 0 0 0
368 1 2 0.0 2.46 1.3 103.68851769 0 0 0
369 1 2 0.0 3.69000054 1.3 104.39865821 0 0 0
370 1 2 0.0 3.69000054 1.3 105.818939249 0 0 0
371 1 2 0.0 2.46 1.3 106.528236652 0 0 0
372 1 2 0.0 2.46 1.3 107.94851769 0 0 0
373 1 2 0.0 3.69000054 1.3 108.65865821 0 0 0
374 1 2 0.0 3.69000054 1.3 110.078939249 0 0 0
375 1 2 0.0 2.46 1.3 110.788236652 0 0 0
376 1 2 0.0 2.46 1.3 112.20851769 0 0 0
377 1 2 0.0 3.69000054 1.3 112.91865821 0 0 0
378 1 2 0.0 3.69000054 1.3 114.338939249 0 0 0
379 1 2 0.0 4.92 1.3 115.048236652 0 0 0
380 1 2 0.0 4.92 1.3 86.64851769 0 0 0
381 1 2 0.0 6.15000054 1.3 87.35865821 0 0 0
382 1 2 0.0 6.15000054 1.3 88.778939249 0 0 0
383 1 2 0.0 4.92 1.3 89.488236652 0 0 0
384 1 2 0.0 4.92 1.3 90.90851769 0 0 0
385 1 2 0.0 6.15000054 1.3 91.61865821 0 0 0
386 1 2 0.0 6.15000054 1.3 93.038939249 0 0 0
387 1 2 0.0 4.92 1.3 93.748236652 0 0 0
388 1 2 0.0 4.92 1.3 95.16851769 0 0 0
389 1 2 0.0 6.15000054 1.3 95.87865821 0 0 0
390 1 2 0.0 6.15000054 1.3 97.298939249 0 0 0
391 1 2 0.0 4.92 1.3 98.008236652 0 0 0
392 1 2 0.0 4.92 1.3 99.42851769 0 0 0
393 1 2 0.0 6.15000054 1.3 100.13865821 0 0 0
394 1 2 0.0 6.15000054 1.3 101.558939249 0 0 0
395 1 2 0.0 4.92 1.3 102.268236652 0 0 0
396 1 2 0.0 4.92 1.3 103.68851769 0 0 0
397 1 2 0.0 6.15000054 1.3 104.39865821 0 0 0
398 1 2 0.0 6.15000054 1.3 105.818939249 0 0 0
399 1 2 0.0 4.92 1.3 106.528236652 0 0 0
400 1 2 0.0 4.92 1.3 107.94851769 0 0 0
401 1 2 0.0 6.15000054 1.3 108.65865821 0 0 0
402 1 2 0.0 6.15000054 1.3 110.078939249 0 0 0
403 1 2 0.0 4.92 1.3 110.788236652 0 0 0
404 1 2 0.0 4.92 1.3 112.20851769 0 0 0
405 1 2 0.0 6.15000054 1.3 112.91865821 0 0 0
406 1 2 0.0 6.15000054 1.3 114.338939249 0 0 0
407 1 2 0.0 7.38 1.3 115.048236652 0 0 0
408 1 2 0.0 7.38 1.3 86.64851769 0 0 0
409 1 2 0.0 8.61000054 1.3 87.35865821 0 0 0
410 1 2 0.0 8.61000054 1.3 88.778939249 0 0 0
411 1 2 0.0 7.38 1.3 89.488236652 0 0 0
412 1 2 0.0 7.38 1.3 90.90851769 0 0 0
413 1 2 0.0 8.61000054 1.3 91.61865821 0 0 0
414 1 2 0.0 8.61000054 1.3 93.038939249 0 0 0
415 1 2 0.0 7.38 1.3 93.748236652 0 0 0
416 1 2 0.0 7.38 1.3 95.16851769 0 0 0
417 1 2 0.0 8.61000054 1.3 95.87865821 0 0 0
418 1 2 0.0 8.61000054 1.3 97.298939249 0 0 0
419 1 2 0.0 7.38 1.3 98.008236652 0 0 0
420 1 2 0.0 7.38 1.3 99.42851769 0 0 0
421 1 2 0.0 8.61000054 1.3 100.13865821 0 0 0
422 1 2 0.0 8.61000054 1.3 101.558939249 0 0 0
423 1 2 0.0 7.38 1.3 102.268236652 0 0 0
424 1 2 0.0 7.38 1.3 103.68851769 0 0 0
425 1 2 0.0 8.61000054 1.3 104.39865821 0 0 0
426 1 2 0.0 8.61000054 1.3 105.818939249 0 0 0
427 1 2 0.0 7.38 1.3 106.528236652 0 0 0
428 1 2 0.0 7.38 1.3 107.94851769 0 0 0
429 1 2 0.0 8.61000054 1.3 108.65865821 0 0 0
430 1 2 0.0 8.61000054 1.3 110.078939249 0 0 0
431 1 2 0.0 7.38 1.3 110.788236652 0 0 0
432 1 2 0.0 7.38 1.3 112.20851769 0 0 0
433 1 2 0.0 8.61000054 1.3 112.91865821 0 0 0
434 1 2 0.0 8.61000054 1.3 114.338939249 0 0 0
435 1 2 0.0 9.84 1.3 115.048236652 0 0 0
436 1 2 0.0 9.84 1.3 86.64851769 0 0 0
437 1 2 0.0 11.07000054 1.3 87.35865821 0 0 0
438 1 2 0.0 11.07000054 1.3 88.778939249 0 0 0
439 1 2 0.0 9.84 1.3 89.488236652 0 0 0
440 1 2 0.0 9.84 1.3 90.90851769 0 0 0
441 1 2 0.0 11.07000054 1.3 91.61865821 0 0 0
442 1 2 0.0 11.07000054 1.3 93.038939249 0 0 0
443 1 2 0.0 9.84 1.3 93.748236652 0 0 0
444 1 2 0.0 9.84 1.3 95.16851769 0 0 0
445 1 2 0.0 11.07000054 1.3 95.87865821 0 0 0
446 1 2 0.0 11.07000054 1.3 97.298939249 0 0 0
447 1 2 0.0 9.84 1.3 98.008236652 0 0 0
448 1 2 0.0 9.84 1.3 99.42851769 0 0 0
449 1 2 0.0 11.07000054 1.3 100.13865821 0 0 0
450 1 2 0.0 11.07000054 1.3 101.558939249 0 0 0
451 1 2 0.0 9.84 1.3 102.268236652 0 0 0
452 1 2 0.0 9.84 1.3 103.68851769 0 0 0
453 1 2 0.0 11.07000054 1.3 104.39865821 0 0 0
454 1 2 0.0 11.07000054 1.3 105.818939249 0 0 0
455 1 2 0.0 9.84 1.3 106.528236652 0 0 0
456 1 2 0.0 9.84 1.3 107.94851769 0 0 0
457 1 2 0.0 11.07000054 1.3 108.65865821 0 0 0
458 1 2 0.0 11.07000054 1.3 110.078939249 0 0 0
459 1 2 0.0 9.84 1.3 110.788236652 0 0 0
460 1 2 0.0 9.84 1.3 112.20851769 0 0 0
461 1 2 0.0 11.07000054 1.3 112.91865821 0 0 0
462 1 2 0.0 11.07000054 1.3 114.338939249 0 0 0
463 1 2 0.0 12.3 1.3 115.048236652 0 0 0
464 1 2 0.0 12.3 1.3 86.64851769 0 0 0
465 1 2 0.0 13.53000054 1.3 87.35865821 0 0 0
466 1 2 0.0 13.53000054 1.3 88.778939249 0 0 0
467 1 2 0.0 12.3 1.3 89.488236652 0 0 0
468 1 2 0.0 12.3 1.3 90.90851769 0 0 0
469 1 2 0.0 13.53000054 1.3 91.61865821 0 0 0
470 1 2 0.0 13.53000054 1.3 93.038939249 0 0 0
471 1 2 0.0 12.3 1.3 93.748236652 0 0 0
472 1 2 0.0 12.3 1.3 95.16851769 0 0 0
473 1 2 0.0 13.53000054 1.3 95.87865821 0 0 0
474 1 2 0.0 13.53000054 1.3 97.298939249 0 0 0
475 1 2 0.0 12.3 1.3 98.008236652 0 0 0
476 1 2 0.0 12.3 1.3 99.42851769 0 0 0
477 1 2 0.0 13.53000054 1.3 100.13865821 0 0 0
478 1 2 0.0 13.53000054 1.3 101.558939249 0 0 0
479 1 2 0.0 12.3 1.3 102.268236652 0 0 0
480 1 2 0.0 12.3 1.3 103.68851769 0 0 0
481 1 2 0.0 13.53000054 1.3 104.39865821 0 0 0
482 1 2 0.0 13.53000054 1.3 105.818939249 0 0 0
483 1 2 0.0 12.3 1.3 106.528236652 0 0 0
484 1 2 0.0 12.3 1.3 107.94851769 0 0 0
485 1 2 0.0 13.53000054 1.3 108.65865821 0 0 0
486 1 2 0.0 13.53000054 1.3 110.078939249 0 0 0
487 1 2 0.0 12.3 1.3 110.788236652 0 0 0
488 1 2 0.0 12.3 1.3 112.20851769 0 0 0
489 1 2 0.0 13.53000054 1.3 112.91865821 0 0 0
490 1 2 0.0 13.53000054 1.3 114.338939249 0 0 0
491 1 2 0.0 14.76 1.3 115.048236652 0 0 0
492 1 2 0.0 14.76 1.3 86.64851769 0 0 0
493 1 2 0.0 15.99000054 1.3 87.35865821 0 0 0
494 1 2 0.0 15.99000054 1.3 88.778939249 0 0 0
495 1 2 0.0 14.76 1.3 89.488236652 0 0 0
496 1 2 0.0 14.76 1.3 90.90851769 0 0 0
497 1 2 0.0 15.99000054 1.3 91.61865821 0 0 0
498 1 2 0.0 15.99000054 1.3 93.038939249 0 0 0
499 1 2 0.0 14.76 1.3 93.748236652 0 0 0
500 1 2 0.0 14.76 1.3 95.16851769 0 0 0
501 1 2 0.0 15.99000054 1.3 95.87865821 0 0 0
502 1 2 0.0 15.99000054 1.3 97.298939249 0 0 0
503 1 2 0.0 14.76 1.3 98.008236652 0 0 0
504 1 2 0.0 14.76 1.3 99.42851769 0 0 0
505 1 2 0.0 15.99000054 1.3 100.13865821 0 0 0
506 1 2 0.0 15.99000054 1.3 101.558939249 0 0 0
507 1 2 0.0 14.76 1.3 102.268236652 0 0 0
508 1 2 0.0 14.76 1.3 103.68851769 0 0 0
509 1 2 0.0 15.99000054 1.3 104.39865821 0 0 0
510 1 2 0.0 15.99000054 1.3 105.818939249 0 0 0
511 1 2 0.0 14.76 1.3 106.528236652 0 0 0
512 1 2 0.0 14.76 1.3 107.94851769 0 0 0
513 1 2 0.0 15.99000054 1.3 108.65865821 0 0 0
514 1 2 0.0 15.99000054 1.3 110.078939249 0 0 0
515 1 2 0.0 14.76 1.3 110.788236652 0 0 0
516 1 2 0.0 14.76 1.3 112.20851769 0 0 0
517 1 2 0.0 15.99000054 1.3 112.91865821 0 0 0
518 1 2 0.0 15.99000054 1.3 114.338939249 0 0 0
519 1 2 0.0 17.22 1.3 115.048236652 0 0 0
520 1 2 0.0 17.22 1.3 86.64851769 0 0 0
521 1 2 0.0 18.45000054 1.3 87.35865821 0 0 0
522 1 2 0.0 18.45000054 1.3 88.778939249 0 0 0
523 1 2 0.0 17.22 1.3 89.488236652 0 0 0
524 1 2 0.0 17.22 1.3 90.90851769 0 0 0
525 1 2 0.0 18.45000054 1.3 91.61865821 0 0 0
526 1 2 0.0 18.45000054 1.3 93.038939249 0 0 0
527 1 2 0.0 17.22 1.3 93.748236652 0 0 0
528 1 2 0.0 17.22 1.3 95.16851769 0 0 0
529 1 2 0.0 18.45000054 1.3 95.87865821 0 0 0
530 1 2 0.0 18.45000054 1.3 97.298939249 0 0 0
531 1 2 0.0 17.22 1.3 98.008236652 0 0 0
532 1 2 0.0 17.22 1.3 99.42851769 0 0 0
533 1 2 0.0 18.45000054 1.3 100.13865821 0 0 0
534 1 2 0.0 18.45000054 1.3 101.558939249 0 0 0
535 1 2 0.0 17.22 1.3 102.268236652 0 0 0
536 1 2 0.0 17.22 1.3 103.68851769 0 0 0
537 1 2 0.0 18.45000054 1.3 104.39865821 0 0 0
538 1 2 0.0 18.45000054 1.3 105.818939249 0 0 0
539 1 2 0.0 17.22 1.3 106.528236652 0 0 0
540 1 2 0.0 17.22 1.3 107.94851769 0 0 0
541 1 2 0.0 18.45000054 1.3 108.65865821 0 0 0
542 1 2 0.0 18.45000054 1.3 110.078939249 0 0 0
543 1 2 0.0 17.22 1.3 110.788236652 0 0 0
544 1 2 0.0 17.22 1.3 112.20851769 0 0 0
545 1 2 0.0 18.45000054 1.3 112.91865821 0 0 0
546 1 2 0.0 18.45000054 1.3 114.338939249 0 0 0
547 1 2 0.0 19.68 1.3 115.048236652 0 0 0
548 1 2 0.0 19.68 1.3 86.64851769 0 0 0
549 1 2 0.0 20.91000054 1.3 87.35865821 0 0 0
550 1 2 0.0 20.91000054 1.3 88.778939249 0 0 0
551 1 2 0.0 19.68 1.3 89.488236652 0 0 0
552 1 2 0.0 19.68 1.3 90.90851769 0 0 0
553 1 2 0.0 20.91000054 1.3 91.61865821 0 0 0
554 1 2 0.0 20.91000054 1.3 93.038939249 0 0 0
555 1 2 0.0 19.68 1.3 93.748236652 0 0 0
556 1 2 0.0 19.68 1.3 95.16851769 0 0 0
557 1 2 0.0 20.91000054 1.3 95.87865821 0 0 0
558 1 2 0.0 20.91000054 1.3 97.298939249 0 0 0
559 1 2 0.0 19.68 1.3 98.008236652 0 0 0
560 1 2 0.0 19.68 1.3 99.42851769 0 0 0
561 1 2 0.0 20.91000054 1.3 100.13865821 0 0 0
562 1 2 0.0 20.91000054 1.3 101.558939249 0 0 0
563 1 2 0.0 19.68 1.3 102.268236652 0 0 0
564 1 2 0.0 19.68 1.3 103.68851769 0 0 0
565 1 2 0.0 20.91000054 1.3 104.39865821 0 0 0
566 1 2 0.0 20.91000054 1.3 105.818939249 0 0 0
567 1 2 0.0 19.68 1.3 106.528236652 0 0 0
568 1 2 0.0 19.68 1.3 107.94851769 0 0 0
569 1 2 0.0 20.91000054 1.3 108.65865821 0 0 0
570 1 2 0.0 20.91000054 1.3 110.078939249 0 0 0
571 1 2 0.0 19.68 1.3 110.788236652 0 0 0
572 1 2 0.0 19.68 1.3 112.20851769 0 0 0
573 1 2 0.0 20.91000054 1.3 112.91865821 0 0 0
574 1 2 0.0 20.91000054 1.3 114.338939249 0 0 0
575 1 2 0.0 22.14 1.3 115.048236652 0 0 0
576 1 2 0.0 22.14 1.3 86.64851769 0 0 0
577 1 2 0.0 23.37000054 1.3 87.35865821 0 0 0
578 1 2 0.0 23.37000054 1.3 88.778939249 0 0 0
579 1 2 0.0 22.14 1.3 89.488236652 0 0 0
580 1 2 0.0 22.14 1.3 90.90851769 0 0 0
581 1 2 0.0 23.37000054 1.3 91.61865821 0 0 0
582 1 2 0.0 23.37000054 1.3 93.038939249 0 0 0
583 1 2 0.0 22.14 1.3 93.748236652 0 0 0
584 1 2 0.0 22.14 1.3 95.16851769 0 0 0
585 1 2 0.0 23.37000054 1.3 95.87865821 0 0 0