LAMMPS data file via write_data, version 2 Aug 2023, timestep = 20000, units = metal

3750 atoms
5 atom types

0 100 xlo xhi
0 100 ylo yhi
0 6 zlo zhi

Masses

1 26.9815
2 28.086
3 24.305
4 63.54
5 55.847

Atoms # atomic

1 1 0.9489495049299713 0.4865034960221311 0.11863753490726392 0 0 0
2 1 2.7013694922998326 2.5655712958056545 0.6338815247775443 0 0 0
3 1 1.9888161655772352 0.5608516994604865 2.730323646529136 0 0 0
652 1 1.5010696091492286 2.6250019547851187 4.278793117215457 0 0 0
653 1 3.4261013854818514 0.5800598940620608 5.103683070744284 0 0 0
5 1 4.496122913756941 0.6382330238612238 1.3513989507879427 0 0 0
6 1 6.11823939322341 2.6463952903688845 1.9149512721820647 0 0 0
7 1 5.935265623056965 0.33714269411811487 3.941493196897552 0 0 0
8 1 3.850251026735959 2.6059342582272307 3.1949648277290064 0 0 0
654 1 5.1266370426093255 2.8628645555709147 5.339887164922022 0 0 0
9 1 6.805292424332174 0.7180747187905557 0.4305020220434375 0 0 0
10 1 8.59022720303003 2.819442291610829 0.7878473634643871 0 0 0
11 1 8.862838386745256 0.4973168870287668 2.2906642856217037 0 0 0
12 1 7.708369085701295 2.5665424540678083 4.055679719841254 0 0 0
655 1 9.200752794297527 0.20762965759827473 4.86153582226641 0 0 0
656 1 10.633667426544017 2.3216556008220617 4.7661997075048665 0 0 0
14 1 12.939164898355235 1.7526882576007765 5.689042405906308 0 0 -1
16 1 11.109775125362836 2.2044209370881864 1.9011717636253531 0 0 0
657 1 11.481379520011366 0.0009041919968210313 3.199842311094058 0 0 0
658 1 13.563896597920014 1.8509995766822251 3.1275551544922755 0 0 0
17 1 15.525972790797686 1.4424377951621152 0.7047211159941613 0 0 0
660 1 15.99179349410387 1.1024732729918112 4.225744017252134 0 0 0
20 1 16.093247372911467 3.3125735439177175 2.667077907232311 0 0 0
43 1 15.016581731881002 3.3511199041377098 5.115591848384852 0 0 -1
18 1 17.730215376217657 2.732664233857724 5.8429820505481285 0 0 -1
19 1 18.329481423884516 0.333216853900764 1.0531711600268006 0 0 0
21 1 20.186239264503474 1.4133076946597634 5.346690503355812 0 0 -1
24 1 18.436419111440213 1.9503622793024646 3.2572104692390256 0 0 0
47 1 20.6147579139183 2.366435913173354 1.9580341037520934 0 0 0
661 1 20.482295315286528 99.92098788434076 2.924554729201248 0 -1 0
22 1 22.59532511811096 0.7055897863124593 1.0523918196532274 0 0 0
25 1 24.68923279186681 1.276570989165039 5.382584495580272 0 0 -1
26 1 24.621539965459387 2.5044535397890373 1.5463471620982183 0 0 0
662 1 22.708882792321315 1.8339878793154234 3.663794714347717 0 0 0
663 1 24.659346284319447 0.06557735676981241 2.904886079016118 0 0 0
48 1 22.255782179091543 3.4322948217529095 5.853964523377832 0 0 -1
977 1 26.61035393035529 0.7992721723330874 1.0144725081583255 0 0 0
1576 1 26.47685471930662 1.8332797391182136 3.4125203670843876 0 0 0
976 1 26.58245616479695 3.2769601248254894 5.552508441412596 0 0 -1
1577 1 28.49707625271287 0.12336499465762919 2.757863393192531 0 0 0
981 1 28.792724279179165 2.526683736160695 1.9143207492170808 0 0 0
978 1 28.577537048051198 1.1951851881979991 5.435832537966545 0 0 -1
980 1 30.7197501336315 0.708495633351897 0.9681496075698263 0 0 0
1578 1 30.68572270314343 2.159124913467223 3.5789514056400646 0 0 0
979 1 30.64893826041627 3.3496553228082924 5.765746785079098 0 0 -1
982 1 32.65195467765602 1.5388228042664884 5.19583842489916 0 0 -1
984 1 34.37483343079423 0.6071705244126935 1.1111036335542168 0 0 0
985 1 32.580952079104826 2.796297462171751 1.7300850057374157 0 0 0
1580 1 34.7263222165469 1.8609119196713708 3.4114132362763794 0 0 0
983 1 34.70927170063185 3.238533843896905 5.881631351513395 0 0 -1
986 1 36.64182362822462 1.1456937165953647 5.185113878321793 0 0 -1
987 1 38.55734313645424 2.92174462284248 5.6765291386589185 0 0 -1
988 1 38.45251771334493 0.13760436978597934 1.0630781916402292 0 0 0
989 1 36.723984573720195 2.4676401179876244 1.6458266388448453 0 0 0
1582 1 38.55286266695171 1.6313905487033855 3.2983345576709917 0 0 0
990 1 40.413771123727656 0.9611161405630542 4.984442355857984 0 0 -1
993 1 40.47974907891131 2.3727035013783846 1.424549693354049 0 0 0
1595 1 40.65512088660782 3.43643841868538 3.918178529593834 0 0 0
991 1 42.414146609255575 2.8542110296907524 5.588037210022351 0 0 -1
1584 1 42.48299421165343 1.1959714719728018 3.3195119357080345 0 0 0
1585 1 44.3251732006403 1.7765889170742568 1.3392411256441625 0 0 0
1597 1 44.654568624522454 2.233237710527663 4.393018748803885 0 0 0
1586 1 46.55816783400565 2.8796092872492105 2.2584387349339297 0 0 0
996 1 46.80661728378599 0.6808516699759828 0.42715588319033193 0 0 0
995 1 47.483149749949995 2.668805715260487 4.500946261891157 0 0 -1
998 1 49.20776759072018 0.5921133109898256 5.35699373244884 0 0 -1
999 1 48.800722250246864 2.882923743835566 0.8157915407350551 0 0 0
1587 1 48.02002723952149 0.4767796765169358 2.673202346005747 0 0 0
2526 1 50.09063900924293 2.69414354650512 3.3784465719649344 0 0 0
1876 1 51.339546458971036 2.9179409067146986 5.820638100856423 0 0 -1
1877 1 50.74603651184187 0.9667255201438909 1.7889484918879757 0 0 0
1881 1 52.57836425677034 2.9385210531454216 2.519792586134256 0 0 0
2527 1 52.040670756484445 0.9138745077545728 4.12658671326872 0 0 0
1878 1 53.2815720330741 1.0715447666066713 0.584270037971282 0 0 0
1879 1 55.4882481644305 2.830711995663976 1.0897777206561123 0 0 0
1880 1 54.66695300994844 0.7487113140523357 2.8300162876792907 0 0 0
2528 1 54.1395759303441 2.6683116147194466 4.749267887298836 0 0 0
2529 1 56.11794761679432 0.9506252573297572 5.2762973445392545 0 0 0
1885 1 56.626112834109335 2.68075174191793 3.4982961041600142 0 0 0
1882 1 58.21143407135884 1.103094898004805 1.5999919200443518 0 0 0
1883 1 58.02615885294305 3.072142415586426 5.877852954621425 0 0 -1
2530 1 59.87460766023539 1.5328668012594107 4.75867907472406 0 0 0
1889 1 61.137853842563416 1.915045548169569 2.4173242072605943 0 0 0
2531 1 62.09194659699444 0.07515150574737903 4.071329260327628 0 0 0
1887 1 62.45637436414421 2.214657748475379 5.8231145200402 0 0 -1
1888 1 63.331447375323116 0.3020786442634701 1.7560609552378288 0 0 0
2532 1 63.82686603947285 2.5352447385573664 3.5464915020364134 0 0 0
1890 1 64.4118098140933 0.4047697319067885 5.357837987564046 0 0 -1
1891 1 66.3697911970562 2.5859207060857914 4.654807863822905 0 0 -1
1892 1 66.95862126639322 0.7759357371073442 0.7096057293661769 0 0 0
1893 1 64.98363701697147 2.5974047632516224 1.1973154405579691 0 0 0
2533 1 65.82922485974345 0.4359933863711092 3.1548566778323974 0 0 0
2534 1 67.79196712762665 2.796335028459633 2.328061910066189 0 0 0
1894 1 68.51140229925205 0.5448206800033789 4.258782355342739 0 0 -1
1895 1 70.40101467938719 2.4850279688017483 3.23443319441546 0 0 -1
1896 1 71.17498940039535 0.7036976048932422 5.295683715347087 0 0 -1
1897 1 68.81443564383392 2.6374449242153792 5.747466446507257 0 0 -1
2535 1 69.5160799664104 0.6197086937502044 1.6639309552996295 0 0 0
2536 1 71.39083743947425 2.954383397972209 0.8156378519540075 0 0 0
1900 1 74.64915376668122 1.1227782464469078 5.801832478586215 0 0 -1
1898 1 72.7999834572329 2.285095500924538 4.078469135396416 0 0 -1
2537 1 73.07876155535104 0.884005336844727 1.9094292338212322 0 0 0
2538 1 74.51484549131743 3.360282041940402 1.763830468823321 0 0 0
2850 1 76.06873216273439 0.9790774409194469 2.436983697942328 0 1 0
1899 1 75.50523260727816 3.3036803292724524 4.254591037637205 0 0 -1
2851 1 77.3150770917994 0.9620460388179359 4.963779024322572 0 0 -1
3451 1 76.77522649996362 2.8511645210712944 0.6006356265293558 0 0 0
3452 1 77.94423682703153 2.8665258550330317 3.1153479803894717 0 0 0
2853 1 78.78905785032077 0.8941842034550584 1.3373797655439428 0 0 0
2852 1 79.38112197812808 2.9048700916813868 5.377850209965261 0 0 -1
2855 1 81.34286411067147 0.8467482364599636 0.026585562295783127 0 0 0
2858 1 80.8874269856946 2.541381995988106 1.7887001151620365 0 0 0
3453 1 80.0126742509008 0.848470188007806 3.7855534104057735 0 0 0
3454 1 82.19316093362875 2.685428584992746 4.224431280358895 0 0 0
2856 1 83.42505525937926 2.508132860973666 0.5098424269326238 0 0 0
2857 1 82.57349308134364 0.4624502115701988 2.421888670889454 0 0 0
2859 1 85.32773593150675 0.5428293851669174 1.2615040281756962 0 0 0
2862 1 84.5549197709909 2.475142155462275 3.057030542595328 0 0 0
3455 1 83.76925372300151 0.33297459490780307 4.936825741667652 0 0 0
3456 1 86.04306372624448 2.7820405075353216 5.503014244724314 0 0 0
2860 1 87.16526597450346 2.634838919965166 1.7610174615035425 0 0 0
2861 1 86.6381759789128 0.5786005088854959 3.721486883484475 0 0 0
2866 1 88.47301001542093 2.6096774314043985 3.9864976349742522 0 0 0
3457 1 87.67522046218569 0.6547088318559933 5.968314463156045 0 0 0
2863 1 89.34326594706572 0.588561292686175 2.457510847179286 0 0 0
2864 1 89.81823431002331 2.4685687926848825 0.6035299222328995 0 0 0
2865 1 91.81517751928878 0.35902291419820637 1.2886958518299247 0 0 0
3458 1 91.2140701188357 2.647996211114599 3.139834573650375 0 0 0
2870 1 92.68429482426413 2.383991639616627 5.693186048193251 0 0 -1
2867 1 90.5797125464671 0.6237364495470891 5.029026926766039 0 0 -1
3459 1 93.03713312882952 0.5909998409838543 3.8407016736183612 0 0 0
2868 1 95.08933114147383 2.512030035873078 4.364153740827178 0 0 -1
2869 1 94.53924661852331 0.5232483936592833 0.20157635161182902 0 0 0
3460 1 93.5427528351878 2.4263037421840905 2.0932330124637555 0 0 0
3461 1 95.5531096260235 0.5621677633680829 2.566481915137006 0 0 0
2874 1 96.48025181848656 2.460968825133057 0.7048499261393105 0 0 0
4 1 0.07328151708869872 2.2357272013409766 1.8332702631368427 0 0 0
651 1 99.58357727062274 0.544787397644433 3.691563355072727 -1 0 0
2871 1 96.90982693799394 0.4857122980245936 4.949418125725057 0 0 -1
2872 1 98.99607030005278 2.3617618804946323 5.39942175340835 0 0 -1
2873 1 98.30732667169251 0.4005068933434997 1.2175805190865465 0 0 0
3462 1 97.55379406418598 2.385153117463296 3.0284241047193174 0 0 0
27 1 0.8003423024807083 4.505040329702825 0.36589415926947466 0 0 0
28 1 2.402313021571139 6.756932024733127 0.8748928378116124 0 0 0
29 1 2.043725014348906 4.694903719646692 2.534814486623376 0 0 0
665 1 1.2000752961576937 6.747164906563676 4.474762268511725 0 0 0
666 1 3.284707861926141 4.706905430344937 5.014178285594085 0 0 0
34 1 3.7105150644935954 6.920911445303018 3.1774054023263973 0 0 0
31 1 4.4271432289780694 4.774676394539329 1.5173748860269425 0 0 0
33 1 6.31298126119757 5.06452065047358 3.9612294089558078 0 0 0
667 1 5.011414816745574 6.752748187755076 5.412442696445927 0 0 0
35 1 7.105446763135783 4.968408058888399 1.3124561556552672 0 0 0
36 1 9.769182574870014 6.598456883559326 1.0326976907944547 0 0 0
37 1 9.74373394824485 4.3498684435806165 2.7334746083694643 0 0 0
38 1 8.423338520343725 6.899058478596297 3.194400450051755 0 0 0
668 1 8.808279657978053 4.923211206811458 5.133576168287201 0 0 0
41 1 13.611310765772945 3.6700666889738343 1.3823779811677952 0 0 0
669 1 11.031496175522008 6.578944305561253 4.510056247637996 0 0 0
39 1 11.182702880906424 4.335484662851349 0.2940105825421689 0 0 0
40 1 13.54991797942914 6.076590820762563 5.487015958142538 0 0 -1
42 1 12.503888728388771 6.353418096376817 2.1201317080561473 0 0 0
670 1 12.265409837438932 4.162831403239349 3.78881657306205 0 0 0
671 1 14.748887791867977 5.6692471115313925 3.361507654839261 0 0 0
46 1 16.03545593220141 5.3345447725880515 0.9336994907050478 0 0 0
685 1 17.281355230215134 6.996592078179095 2.665360993158329 0 0 0
672 1 17.2622711091898 5.00276980213497 4.453665244795084 0 0 0
674 1 19.990805265029927 3.912541553595079 4.306345494891019 0 0 0
44 1 18.33407154807958 6.734241100390283 0.33272596615917355 0 0 0
45 1 18.436001225589557 4.420425015331203 2.1485656280313385 0 0 0
50 1 20.20241268277023 6.380325210087288 3.238175885096902 0 0 0
73 1 20.45580921063113 5.314906454577261 0.729836635468536 0 0 0
49 1 22.324782886735022 4.416307850802686 2.3746574036831762 0 0 0
51 1 24.493008162733766 4.993792245956134 0.600890230171742 0 0 0
52 1 24.435152972231993 6.456614612693741 2.823146908208787 0 0 0
675 1 22.410305700826672 5.731076405455283 4.679365492159628 0 0 0
676 1 24.47927368992723 3.7859091133181577 3.877445234158377 0 0 0
75 1 22.363645885326743 6.810748515220638 1.3512007699254616 0 0 0
1001 1 26.552450885385685 4.601115985605492 2.2701106119137076 0 0 0
1588 1 26.45143236070848 5.801291302748515 4.60021613524045 0 0 0
1000 1 26.397409839681835 7.302040346765481 1.2806235671403383 0 0 0
1589 1 28.585367589935377 3.982237572210783 3.9754999567326674 0 0 0
1005 1 28.750113892160662 6.6173406796809315 2.652641879941921 0 0 0
1002 1 28.40897544202684 5.054055091672165 0.46460168337658186 0 0 0
1004 1 30.624279140135332 4.707516585498725 2.178835248720001 0 0 0
1590 1 30.487581536900162 5.773403587535299 4.772821655975177 0 0 0
1591 1 32.6680750014125 4.06138695084634 4.045300786331453 0 0 0
1006 1 32.6656041887045 5.122380248703166 0.41825021869121953 0 0 0
1008 1 34.701882536944304 4.57137585304419 2.1810875102359253 0 0 0
1592 1 34.79224761208202 5.678539322743831 4.714274888420185 0 0 0
1009 1 32.41046034424298 6.487809688962404 2.859291169451148 0 0 0
1007 1 34.773428286300735 7.143454697794977 1.032127505786084 0 0 0
1593 1 36.80696740648785 3.8567113475881443 3.9777776827674765 0 0 0
1010 1 36.82235146525099 5.01026432690394 0.6439698063679895 0 0 0
1012 1 38.761239204769694 4.236433672047664 2.128240297657726 0 0 0
1013 1 36.59504848501328 6.464087676787222 2.899563788178749 0 0 0
1594 1 38.73266525222554 5.615752094645918 4.551422422711944 0 0 0
1011 1 38.97369087717684 6.815965544429566 1.0081364474509396 0 0 0
1014 1 40.595187870406996 4.782198939607495 0.34898560465814527 0 0 0
1017 1 40.81039963782864 6.069559801029059 2.9229684142504238 0 0 0
1596 1 42.6067075453541 5.1483458844022465 4.5715139928025135 0 0 0
1607 1 40.889355760879745 7.402532861744897 5.12509522163487 0 0 0
1016 1 43.035647605522904 3.739836984631922 2.447317441596197 0 0 0
1015 1 42.83484748750191 6.5278866183977975 1.3049318557167715 0 0 0
997 1 44.33775400146055 4.282303286898781 0.3601969312528517 0 0 0
1018 1 44.83582162502333 6.894376334854978 5.5565513797101005 0 0 -1
1598 1 45.58840506578491 4.7915939521007 3.849759593854875 0 0 0
1044 1 46.165803885266484 6.77047440224832 2.091211191975721 0 0 0
1020 1 46.83657277623477 4.660041151717799 0.21057623626516497 0 0 0
1023 1 48.73514512551755 6.822502271819485 0.9573439901118592 0 0 0
1599 1 48.33640978793794 4.801646994925649 2.5417003778896343 0 0 0
1022 1 49.38733320110616 4.728506751623801 4.968007606502647 0 0 -1
1019 1 47.40683918297482 6.694075250507728 4.611625555335699 0 0 -1
2539 1 50.216086716244874 6.531419079672016 3.4285691559802602 0 0 0
1902 1 51.30585684096717 6.896040922185615 5.968663528421653 0 0 -1
1903 1 50.80913722340556 4.77615301540686 1.5365369456726756 0 0 0
2540 1 52.249669438830956 4.945768936188926 4.0966595385800915 0 0 0
1907 1 52.75867004687916 6.859736726085056 2.3050628891997205 0 0 0
1904 1 53.437710036579034 4.815718719167062 0.5475420470680562 0 0 0
1905 1 55.451496470164685 6.71999913298493 1.1984310514373453 0 0 0
1906 1 54.726685421144566 4.890737063257571 3.236635802465992 0 0 0
1911 1 56.45510241998888 6.705596350437391 3.768373698363832 0 0 0
2541 1 53.83483084221944 6.8900755909600235 4.881898421886461 0 0 0
2542 1 55.950682510188976 4.875038583619778 5.469468849453826 0 0 0
1908 1 57.21828003781246 4.738263649604397 2.0537127991248845 0 0 0
1909 1 60.147764049359694 5.763085068573375 2.0714640754916336 0 0 0
1910 1 59.10187736103945 3.3839310930939983 3.008011730713272 0 0 0
1912 1 60.41933876809071 3.733681061109489 0.48747517825262604 0 0 0
2543 1 58.01293855351256 6.707839578006451 5.943626288376262 0 0 0
1915 1 60.062929389813974 5.910667424607759 4.8542956129688095 0 0 0
2544 1 61.692692399661475 3.9598237670399192 4.170276975308201 0 0 0
1913 1 62.09970580047306 6.148899435358236 0.25498454617613936 0 0 0
1914 1 63.067383159335044 4.216013909650391 1.7434388633577644 0 0 0
2545 1 63.06612885583302 6.334607848106685 3.8060327207699105 0 0 0
1916 1 64.33349722592038 4.410388003417421 5.355896756026125 0 0 -1
1917 1 65.78193021530477 6.548617995611319 4.700349078974607 0 0 -1
1918 1 66.90210618159101 4.715709480301208 0.3970741465001684 0 0 0
1919 1 64.54958878266093 6.281540015343934 1.2731155174782174 0 0 0
2546 1 65.70527314514196 4.617580612863036 2.9182009172219288 0 0 0
2547 1 67.41224256917569 6.5809855735772596 2.3090865059671093 0 0 0
1920 1 68.1783479700997 4.686464772442384 4.133625874867895 0 0 -1
1921 1 69.81445655616676 6.916862354046987 3.2572065981831955 0 0 -1
1922 1 70.57158635993726 4.614155537038733 4.745794179205721 0 0 -1
1923 1 68.73625238766985 6.755410967674308 5.688433299327423 0 0 -1
2548 1 69.41597184299482 4.60591572309133 1.780100609564815 0 0 0
2549 1 71.27309965337783 6.52760634925145 0.918843126541964 0 0 0
1924 1 72.36447597971976 4.701064343491561 2.7068690939740114 0 0 -1
1901 1 72.95735114284088 4.569893116826932 5.776123647322776 0 0 -1
1926 1 74.71509907656652 5.991247236750518 3.986838460864731 0 0 -1
2550 1 73.7273235987465 6.944331005244838 1.744519545078323 0 0 0
1927 1 72.13219536605024 6.803001349147852 4.466197642134563 0 0 -1
2854 1 75.5490691775525 5.423221856617622 0.34721625622854985 0 0 0
2875 1 77.61883297868965 4.906347637138328 4.971502849196583 0 0 -1
3463 1 76.74159022611383 5.059766865741318 2.5298433209873603 0 0 0
2877 1 79.15321880728199 4.578863128618406 1.235661579327721 0 0 0
2879 1 81.44161167415268 4.572388612671198 0.09124327701231613 0 0 0
2882 1 81.2158868397133 6.761517171086098 1.838062394314302 0 0 0
3465 1 80.43099992823268 4.624188528555268 3.6425836977399917 0 0 0
2876 1 79.9559543383338 6.60959693327544 5.378681707103028 0 0 -1
3464 1 78.84953169619932 6.621876388323576 2.982442334934195 0 0 0
3466 1 82.3553926917575 6.73568710218914 4.219052858785655 0 0 0
2880 1 83.56736810072448 6.602690080942666 0.6037416399119007 0 0 0
2881 1 82.8948769312169 4.935653419313919 2.4762498020960226 0 0 0
2883 1 85.37718261712236 4.599399015497613 1.065512409537679 0 0 0
2886 1 84.97036983835666 6.712901378246046 2.9864792399077946 0 0 0
3467 1 84.09660681861959 4.426967619103727 4.802781915999769 0 0 0
3468 1 85.98530687285013 6.850107790520713 5.557321986799513 0 0 0
2884 1 87.33446199831904 6.916205809201766 1.7972828558943839 0 0 0
2885 1 86.58075720626901 4.760954756760011 3.713705616827349 0 0 0
2890 1 88.53394077603474 6.69973090907737 4.263928216053502 0 0 0
3469 1 88.000289687504 4.694728266143777 0.04316596135742934 0 0 1
2887 1 89.17984389270448 4.564355714754449 2.4328347918582978 0 0 0
2888 1 89.64951427348187 6.666909667273131 0.657955976449348 0 0 0
2889 1 91.74434852769235 4.367971696073012 1.3317725787793322 0 0 0
3470 1 92.491118211476 6.644167333833652 5.559275892872456 0 0 0
2891 1 90.45050629707758 4.624521023939933 4.996638355884687 0 0 -1
2894 1 91.14941447383251 6.434927933691317 3.100675749510982 0 0 0
3471 1 92.93109240641853 4.714710742784614 3.5857918619976896 0 0 0
2892 1 95.04358482818792 6.2732148137694494 4.298575567312144 0 0 -1
2893 1 94.22496228445097 4.571484721212163 0.029882745374038087 0 0 0
3473 1 95.42882623066001 4.338362356238823 2.418961667940538 0 0 0
2917 1 93.68955415708123 6.65242977402589 1.871838192319107 0 0 0
2898 1 96.27420522105038 6.416823528167613 0.7064865792995717 0 0 0
30 1 99.9453356248701 6.392267276710492 2.1116705226370045 -1 0 0
664 1 99.660867641872 4.401789939011121 3.675979597818494 -1 0 0
2895 1 97.10927632538684 4.511969098159161 4.967118611051218 0 0 -1
2896 1 98.9631999695317 6.401516483568788 5.513033474839938 0 0 -1
2897 1 98.18026069220407 4.388988679010112 1.2944267616297573 0 0 0
3474 1 97.52934780671194 6.257766892538435 3.3018950043057718 0 0 0
53 1 0.49753987126768606 8.97393923087676 0.09068511215297329 0 0 0
55 1 1.3372622355774015 8.68404541692925 2.4622143198567743 0 0 0
679 1 3.2312584390419947 8.846272093495466 4.994537149015019 0 0 0
678 1 1.3988703399375413 10.741257163563075 4.348212064573301 0 0 0
60 1 3.746607863147548 9.350727333978995 1.9176819343146754 0 0 0
32 1 5.8424578902116275 7.363140165330872 1.9687179633992857 0 0 0
57 1 5.7299021813761275 9.354472242360087 0.1522740954896428 0 0 0
692 1 4.907160119797968 10.808194495087369 3.927251508566159 0 0 0
58 1 7.234713044430231 9.428828724271462 3.7384900831189745 0 0 0
59 1 7.648365037893246 7.303865502931644 5.537607895059397 0 0 0
61 1 8.379044099017074 9.11184174623281 1.4652272611544759 0 0 0
681 1 9.675956803880979 9.070406399170318 5.212596992490218 0 0 0
63 1 10.643983411261711 8.504284649666037 2.7391384968785273 0 0 0
682 1 12.233896581630622 10.403906078393968 4.500299786986513 0 0 0
65 1 12.147301210193442 8.280761346620938 0.1859544936337851 0 0 0
68 1 13.164359842565737 10.115797232692673 2.008093310982053 0 0 0
683 1 13.303951376085116 8.125305394675378 3.7546686867788033 0 0 0
66 1 14.629069303023405 9.731175706534984 5.547034148843571 0 0 -1
69 1 16.08139363927117 7.427691683764 5.001810386409675 0 0 -1
67 1 14.703416338767322 7.666178370944276 1.3715192972116752 0 0 0
684 1 15.675570402030232 9.508623142602083 3.0757351402045807 0 0 0
72 1 17.34704621114132 9.30650943833998 0.7296625362065202 0 0 0
673 1 18.308146395854003 8.90681186371487 4.308103367108264 0 0 0
71 1 20.257578343828364 8.74557004566201 1.880167773561913 0 0 0
687 1 20.547312233068418 7.8522762509100374 5.344132903190107 0 0 0
70 1 20.44158799306047 10.572506579310009 4.193848562809939 0 0 -1
689 1 22.324744022409146 8.456900293541565 3.495666710291774 0 0 0
74 1 22.453361549883006 9.537793166945306 0.05462460878837124 0 0 0
78 1 24.223478256907267 8.979121970698728 1.8267547402070006 0 0 0
77 1 24.35310021035983 7.517572323694006 5.467629434675528 0 0 -1
1600 1 24.47691574577025 10.323527980909205 4.317383620397978 0 0 0
1025 1 26.291044026415683 8.315734524187732 3.5983281377571 0 0 0
1024 1 26.39648370885274 9.688893252368775 0.05794629454548802 0 0 0
1602 1 29.063968474638493 10.068475118234277 5.500263252956033 0 0 0
1049 1 26.29977058588 10.87264041591857 2.528259309628077 0 0 0
1003 1 30.651906292995406 7.734605275810587 0.7906429967707327 0 0 0
1601 1 28.50890405574331 7.686057709405237 5.39190360365996 0 0 0
1026 1 28.495904725449865 9.136035929069873 1.9821997910435039 0 0 0
1028 1 30.616184518786856 8.454553098534722 3.4813775873900625 0 0 0
1027 1 30.777151207021355 10.62164586767793 1.7832852849895473 0 0 0
1033 1 31.940894219417032 9.744866396799097 5.2324121663036625 0 0 0
1030 1 32.85871048053735 8.87062668080798 1.7846469129452163 0 0 0
1032 1 34.77322023727347 8.264519341375456 3.574162788032592 0 0 0
1603 1 32.85424132182524 7.412701993002702 5.166801676845046 0 0 0
1604 1 34.66594501127812 9.432683603091021 5.797148302996699 0 0 0
1031 1 34.89753470434004 10.688418116915395 2.1026747773342773 0 0 0
1605 1 36.781917636132164 7.58995356587224 5.2327079035084845 0 0 0
1034 1 36.989079076417084 8.965549118006368 1.539849315274139 0 0 0
1037 1 37.00891887374511 9.918174243241182 3.995861461255973 0 0 0
1036 1 38.93789890238309 7.978402165199724 3.315798016007642 0 0 0
1606 1 39.02756819345103 9.129506267799623 5.813072131284095 0 0 0
1038 1 41.21527543106584 8.736121855030806 1.4773278498821034 0 0 0
1041 1 40.92832912206607 9.727513621092926 3.8810716776315113 0 0 0
1035 1 39.47438944092087 10.66707259935662 2.040883196908406 0 0 0
1040 1 42.928590416518574 9.453548135426146 5.567591067742392 0 0 0
1021 1 43.06913950621151 7.912703329349145 3.5305495091592634 0 0 0
1042 1 44.390300622494465 8.77332950683415 1.626996364437562 0 0 0
1609 1 45.69465836319042 8.833740683250028 3.979335414633 0 0 0
1064 1 43.79635561191845 10.772635147886257 3.5424560339582896 0 0 0
1045 1 46.61777016969773 10.767843827895 2.274508343754087 0 0 0
1043 1 46.78163655476746 8.668624801725718 0.503856262490605 0 0 0
1046 1 49.29359421672829 8.795424466487104 5.276781609538008 0 0 -1
1611 1 48.35526945372622 8.667732571219053 2.747599676197984 0 0 0
1047 1 49.09638714315799 10.707173904526163 1.0305058380250403 0 0 0
1929 1 50.692385261344505 8.724295723338653 1.6999708651225243 0 0 0
2553 1 52.14952223235708 8.66671622628647 4.2443807311768005 0 0 0
1930 1 53.332393204091886 8.733112709785932 0.5660420043269211 0 0 0
1928 1 51.530139472152364 10.698546612847027 5.974807291585118 0 0 -1
1932 1 54.6571003584483 8.681392395372328 3.034922864007956 0 0 0
2555 1 55.66031729290617 8.883909072689939 5.33417710783116 0 0 0
1934 1 57.05285189248706 8.566480421113132 1.6535006445076663 0 0 0
1936 1 58.97005892963764 8.11610746322628 3.509874878853877 0 0 0
1938 1 60.318849148722755 8.229026971039387 0.8484867867482351 0 0 0
1935 1 58.39029432016694 10.744798814504609 1.5332066668587792 0 0 0
1941 1 60.80276661741776 10.474956637987079 2.7088192829072932 0 0 0
2556 1 59.52233312297865 10.160002503755923 5.228702549984015 0 0 0
2557 1 61.455269288633616 8.400820384043591 4.565563434395938 0 0 0
1940 1 62.715413481612146 8.543804758648488 2.0800896659589028 0 0 0
1942 1 63.96132361118718 8.310366069724026 5.513179029241713 0 0 -1
1939 1 61.99340737646703 10.37000062320471 0.41287288795352234 0 0 0
2558 1 63.44274180695197 10.46454757317506 3.9089683030821525 0 0 0
1944 1 66.55088223287345 8.307361559680004 0.7182262757294963 0 0 0
2559 1 65.17323365230158 8.405495359885437 2.9725962574106846 0 0 0
1946 1 67.62747147762826 8.747060024761492 4.048226739667809 0 0 -1
1943 1 65.90679019408263 10.618565336987377 5.3035428485216745 0 0 -1
1945 1 64.61853217044958 10.511888930223279 1.4746196456192504 0 0 0
2560 1 67.11842066271737 10.749408047145309 2.3155238160809146 0 0 0
1948 1 70.5501159647184 8.87432738565504 5.272445404669006 0 0 -1
2561 1 68.94804674841517 8.753437916355088 1.6202938738770833 0 0 0
1950 1 71.5162432166666 8.652027249076038 2.5231535603240016 0 0 -1
1949 1 68.4544762589463 10.768291941736422 5.8506029955857 0 0 -1
1947 1 69.59624554557828 10.564761066381976 3.5789782947239903 0 0 -1
2563 1 72.90884480383352 8.917419554429875 0.33196084269020193 0 0 0
1952 1 74.0072522474856 9.010905528208914 3.688526232829917 0 0 -1
2878 1 77.62088231674315 7.087586581999066 0.6250979577640234 0 0 0
1925 1 75.53495632506012 8.071930458818953 5.68313041628927 0 0 -1
2551 1 76.20842582891247 7.96449372082104 2.7702321332100075 0 0 0
2899 1 78.07882932716632 9.308145547076766 4.829276859673502 0 0 -1
3475 1 76.74762017710023 10.084085770346267 1.016532955077861 0 0 0
2901 1 79.33534563997114 8.9345847922757 1.3134414532471173 0 0 0
2903 1 81.87867765327523 8.909438773706219 5.879638878762019 0 0 -1
3477 1 80.31548285048198 8.71886572516797 3.7418939567033984 0 0 0
2905 1 82.88150045019816 8.57800248243947 2.425339838604865 0 0 0
2907 1 85.4480616938543 8.781216648620598 1.1799528426688644 0 0 0
3479 1 84.20245654356049 8.884641103043082 4.681317798483659 0 0 0
2910 1 85.1193356359542 10.725302790718422 2.8523553105783916 0 0 0
2909 1 86.75214536962349 8.817395453274983 3.6481636154003136 0 0 0
3481 1 88.06191256364284 8.79591784223242 5.83490354802037 0 0 0
2911 1 89.39614243936705 8.857480951959865 2.3847749776190073 0 0 0
2913 1 90.79164227261623 8.999908648865967 4.918272772581216 0 0 0
2915 1 91.88741102576729 8.594892209431013 1.2026382413777352 0 0 0
3482 1 92.3850111963467 10.954124079115983 5.464617572973016 0 0 0
3472 1 92.97776132363771 8.369811941890704 3.7912474029081564 0 0 0
3483 1 94.36687950445346 8.42355515212682 0.09244997607242174 0 0 1
2918 1 93.92294260539917 10.48628327208048 1.999901692681172 0 0 0
3485 1 95.63558023263914 8.498733431799446 2.3751584599212947 0 0 0
3484 1 94.93637760189267 10.266517247994406 4.4707302950826655 0 0 0
2922 1 96.61519604868505 10.271868590408783 0.6183707049419599 0 0 0
2919 1 96.75960884291375 8.207862826995218 4.994841133233273 0 0 -1
56 1 99.18734222990096 10.44202349079532 2.04393269285479 -1 0 0
677 1 99.06939670529671 8.649067007799546 3.9160305022599853 -1 0 0
2921 1 98.09465258645966 8.093495141702908 1.2991305984396897 0 0 0
3486 1 97.20825651905469 10.730672807069467 3.6317922758606955 0 0 0
54 1 3.3727649434151847 11.31931858741806 5.977748569730744 0 0 -1
79 1 1.192037389049451 12.074979219703797 1.636113063109845 0 0 0
81 1 3.1360986009932104 12.683179791293703 3.2686618137269394 0 0 0
690 1 1.1462053015170919 13.326102477879576 5.130317475867831 0 0 0
80 1 3.287471838869778 13.655075687517943 0.8651627802580384 0 0 0
83 1 5.452187832626364 11.920984115120717 1.6098037874632871 0 0 0
84 1 5.283903106102536 13.029699508847873 5.162063308406716 0 0 -1
62 1 10.771440581846479 10.687211149981861 0.7864868185081084 0 0 0
87 1 7.456309763251131 13.553812316714586 1.0061826949502746 0 0 0
85 1 7.330916520392605 12.394152387870058 3.5394775101126514 0 0 0
64 1 9.427977109461928 10.963933973819705 3.4167707301291106 0 0 0
680 1 7.73967083990257 11.090389483602594 5.855260680340713 0 0 0
694 1 9.656660970427575 13.141904387460293 5.5313968332300965 0 0 0
90 1 9.292765796750803 13.890418809056772 2.743465013402943 0 0 0
89 1 11.80641087134784 12.468726380159074 2.588126255723339 0 0 0
91 1 12.907831918615754 12.412388311029835 0.20481485553177786 0 0 0
696 1 14.412775860044668 11.915689338703835 3.883748524714388 0 0 0
93 1 15.272477910348375 11.435038080694417 1.1703302341359803 0 0 0
95 1 16.831757258444625 11.095866707844662 4.782123434869959 0 0 -1
698 1 16.658739437117276 13.07049725926695 2.9110892225562215 0 0 0
98 1 16.169383632501138 13.5489527879286 5.905266816940817 0 0 -1
76 1 20.482796302055842 11.909719184748619 0.6144007898050955 0 0 0
686 1 18.45124891188607 11.192432049565722 2.168913254114893 0 0 0
97 1 18.60847766518973 12.862523798127228 4.768066839565666 0 0 -1
700 1 20.81253941520076 13.093683936868421 3.1115146444522237 0 0 0
699 1 18.72987514771635 13.903504174618101 1.2153626263895694 0 0 0
688 1 22.28477426415217 10.872537261492809 2.2983113953320644 0 0 0
99 1 22.43812293642805 12.235667850436792 4.992852974896044 0 0 -1
101 1 22.739017353919177 13.642698374399105 1.2038155338761527 0 0 0