# LAMMPS data file written by OVITO Basic 3.8.4

8 atoms
4 atom types

0.0 2.868779 xlo xhi
0.0 4.634475 ylo yhi
0.0 15.832507 zlo zhi
0.000000    0.000000    0.000000   xy xz yz

Masses

1 6.941  # Li+
2 54.938049  # Mn3+
3 15.9994  # O2-
4 12.011  # C

Atoms  # charge

1 1 0.0 1.4343895 2.3172375 2.2148974495
2 1 0.0 0.0 0.0 3.6176095505
3 2 0.0 1.4343895 2.3172375 5.034926249
4 2 0.0 0.0 0.0 0.797580751
5 3 0.0 1.4343895 0.0 2.104511422
6 3 0.0 0.0 2.3172375 0.5745806783
7 3 0.0 1.4343895 0.0 5.2579263217
8 3 0.0 0.0 2.3172375 3.727995578
