# LAMMPS data file written by OVITO Basic 3.8.4

8 atoms
5 atom types

0.0 2.868779 xlo xhi
0.0 4.634475 ylo yhi
0.0 15.832507 zlo zhi

Masses

1 6.941  # Li+
2 54.938049  # Mn3+
3 15.9994  # O2-
4 1.00784  # H
5 15.9994  # O

Atoms  # full

1 1 1 0.0 1.4343895 2.3172375 2.2148974495
2 1 1 0.0 0.0 0.0 3.6176095505
3 1 2 0.0 1.4343895 2.3172375 5.034926249
4 1 2 0.0 0.0 0.0 0.797580751
5 1 3 0.0 1.4343895 0.0 2.104511422
6 1 3 0.0 0.0 2.3172375 0.5745806783
7 1 3 0.0 1.4343895 0.0 5.2579263217
8 1 3 0.0 0.0 2.3172375 3.727995578
