LAMMPS (2 Aug 2023)
package omp 8
WARNING: OpenMP support not enabled during compilation; using 1 thread only. (../fix_omp.cpp:116)
#-------------------- Initialization -----------------------------------------------------
clear
package omp 8
WARNING: OpenMP support not enabled during compilation; using 1 thread only. (../fix_omp.cpp:116)
echo            both    # echoes each input script command to both log file and screen
#-----------------------------------------------------------------------------------------
units           metal   # determines units of all quantities used in the input file
atom_style      full
boundary        p p p   # periodic boundary condition
#-----------------------------------------------------------------------------------------
variable Tini equal 273+30   # [K] (Initial temperature)
variable Tfin equal 273+30   # [K] (Annealing temperature)

variable Pfin index   13.0   # [bar] (Note 1.0 bar = 0.1 MPa)

variable Nout equal    100   # every 100 time steps to the specified file

variable   natom index 5
variable   nmove index 5
variable   mu    index -5.46 # Fermi Energy (eV) from MOPAC2016 PM7
variable   disp  index 0.01

variable   tfac  equal 5.0/3.0 # (3 trans + 2 rot)/(3 trans) for molecular (2 atoms)
# trans = 3, rot = 2 (line), rot = 3 (non-line), vib = 3n-5 (line), vib = 3n-6 (non-line)
# total = 3n = 3+2+3n-5 = 3+3+3n-6
# vib = about 0.0 at R.T. for molecular (2 atoms)

#-------------------- Atom & Lattice description ----------------------------------------
read_data       data.lammps
Reading data file ...
  orthogonal box = (0 0 0) to (24.07 24.07 24.07)
  1 by 1 by 1 MPI processor grid
  reading atoms ...
  360 atoms
Finding 1-2 1-3 1-4 neighbors ...
  special bond factors lj:    0        0        0       
  special bond factors coul:  0        0        0       
     0 = max # of 1-2 neighbors
     0 = max # of 1-3 neighbors
     0 = max # of 1-4 neighbors
     1 = max # of special neighbors
  special bonds CPU = 0.000 seconds
  read_data CPU = 0.005 seconds

replicate 1 1 1
Replication is creating a 1x1x1 = 1 times larger system...
  orthogonal box = (0 0 0) to (24.07 24.07 24.07)
  1 by 1 by 1 MPI processor grid
  360 atoms
Finding 1-2 1-3 1-4 neighbors ...
  special bond factors lj:    0        0        0       
  special bond factors coul:  0        0        0       
     0 = max # of 1-2 neighbors
     0 = max # of 1-3 neighbors
     0 = max # of 1-4 neighbors
     1 = max # of special neighbors
  special bonds CPU = 0.000 seconds
  replicate CPU = 0.001 seconds

molecule        my_one_gas ./molecular_files/H2_one.txt
Read molecule template my_one_gas:
  1 molecules
  0 fragments
  1 atoms with max type 3
  0 bonds with max type 0
  0 angles with max type 0
  0 dihedrals with max type 0
  0 impropers with max type 0
group           gas type 3
0 atoms in group gas
variable        atoms_of_gas equal 0.5 # The number of atoms per gas molecule

mass 1 12.0107 # C
mass 2 1.00794 # H
mass 3 2.016   # H2

variable elem string "C H H" # specifies the potential file used

# set overlap_cutoff
variable overlap_cutoff_value equal 1.0

#-------------------- Force field --------------------------------------------------------
# LJ
#pair_style hybrid airebo 3.0 1 0 lj/cut 10.2
#pair_coeff * * airebo ./potentials/CH.airebo C H NULL
#pair_coeff 1 3 lj/cut 0.003795 3.194 #   C-H2
#pair_coeff 2 3 lj/cut 0.002456 2.764 #   H-H2
#pair_coeff 3 3 lj/cut 0.003162 2.958 #  H2-H2

# FHE
pair_style hybrid airebo 3.0 1 0 table linear 1000
pair_coeff * * airebo ./potentials/CH.airebo C H NULL
Reading airebo potential file ./potentials/CH.airebo with DATE: 2011-10-25
pair_coeff 1 3 table  ./potentials/fhe_C-h2_303K.txt ENTRY
Reading pair table potential file ./potentials/fhe_C-h2_303K.txt with DATE: 2024-07-07
WARNING: 1166 of 1200 force values in table ENTRY are inconsistent with -dE/dr.
WARNING:  Should only be flagged at inflection points (../pair_table.cpp:466)
pair_coeff 2 3 table  ./potentials/fhe_H-h2_303K.txt ENTRY
Reading pair table potential file ./potentials/fhe_H-h2_303K.txt with DATE: 2024-07-07
WARNING: 1152 of 1200 force values in table ENTRY are inconsistent with -dE/dr.
WARNING:  Should only be flagged at inflection points (../pair_table.cpp:466)
pair_coeff 3 3 table  ./potentials/fhe_h2-h2_303K.txt ENTRY
Reading pair table potential file ./potentials/fhe_h2-h2_303K.txt with DATE: 2024-07-07
WARNING: 1161 of 1200 force values in table ENTRY are inconsistent with -dE/dr.
WARNING:  Should only be flagged at inflection points (../pair_table.cpp:466)

#-------------------- Energy Minimization (failed) ---------------------------------------
# Note: ERROR: Fix gcmc region extends outside simulation box (../fix_gcmc.cpp:486)
# 0 [K], structure optimization
#fix             emin all box/relax x 0.0 y 0.0 z 0.0
#fix             emin all box/relax aniso 0.0
#fix             emin all box/relax iso ${Pfin}
#min_style       cg
#min_modify      dmax 0.2
#min_modify      line quadratic
#minimize        1.0e-4 1.0e-6 100 1000
#unfix           emin

#-------------------- Settings -----------------------------------------------------------
reset_timestep 0

timestep 0.0005  # 0.5 [fs] (Recommend 0.1-1.0 [fs]), sets the timestep for subsequent simulations

variable        ngas equal count(gas)/${atoms_of_gas} # The number of molecules (e.g., H2, N2, CO2, H2O, He, Ar, Kr, etc)
variable        ngas equal count(gas)/0.5 

variable        wtp  equal mass(gas)/mass(all)*100 # Mass Percent Concentration, wt.% [dimensionless] (Absolute, Not excess)

#variable        molc equal (v_ngas/6.022e23)/(vol*1e-30) # molar concentration [mol/m^3] (Absolute, Not excess)
variable        molL equal (v_ngas/6.022e23)/(vol*1e-27) # molar concentration [mol/L] = [mol/dm^3] (Absolute, Not excess)

variable        mc   equal (mass(gas)/6.022e23/1000)/(vol*1e-30) # Mass Concentration [kg/m^3] (Absolute, Not excess)

thermo ${Nout}   # computes and prints thermodynamic
thermo 100   
thermo_style custom step temp vol press etotal v_ngas v_wtp v_molL v_mc # specifies content of thermodynamic data to be printed in screen

#---------- output file settings --------------------------------------
dump            d1 all cfg ${Nout} cfg/run.*.cfg mass type xs ys zs id type vx vy vz fx fy fz
dump            d1 all cfg 100 cfg/run.*.cfg mass type xs ys zs id type vx vy vz fx fy fz
dump_modify     d1 element ${elem}
dump_modify     d1 element C H H
#dump_modify     d1 sort id
#----------------------------------------------------------------------

velocity all create ${Tini} 12345 mom yes rot no # sets the velocity of a group of atoms
velocity all create 303 12345 mom yes rot no 

#-------------------- Run the simulation -------------------------------------------------
compute mdtemp all temp
compute_modify mdtemp dynamic/dof yes

## Equilibrium system, calculation settings
#fix f1 all nvt temp ${Tini} ${Tfin} $(100*dt)
fix f1 all npt temp ${Tini} ${Tfin} $(100*dt) iso 0.0 ${Pfin} $(1000*dt)
fix f1 all npt temp 303 ${Tfin} $(100*dt) iso 0.0 ${Pfin} $(1000*dt)
fix f1 all npt temp 303 303 $(100*dt) iso 0.0 ${Pfin} $(1000*dt)
fix f1 all npt temp 303 303 0.050000000000000002776 iso 0.0 ${Pfin} $(1000*dt)
fix f1 all npt temp 303 303 0.050000000000000002776 iso 0.0 13.0 $(1000*dt)
fix f1 all npt temp 303 303 0.050000000000000002776 iso 0.0 13.0 0.5
fix_modify f1 temp mdtemp

# non-equilibrium system, calculation settings
#fix f1 all nve
#fix f2 all langevin ${Tini} ${Tfin} $(100*dt) 12345
#fix_modify f2 temp mdtemp

# GCMC
fix f3 gas gcmc ${Nout} ${natom} ${nmove} 0 12345 ${Tfin} ${mu} ${disp} mol my_one_gas pressure ${Pfin} tfac_insert ${tfac} full_energy overlap_cutoff ${overlap_cutoff_value}
fix f3 gas gcmc 100 ${natom} ${nmove} 0 12345 ${Tfin} ${mu} ${disp} mol my_one_gas pressure ${Pfin} tfac_insert ${tfac} full_energy overlap_cutoff ${overlap_cutoff_value}
fix f3 gas gcmc 100 5 ${nmove} 0 12345 ${Tfin} ${mu} ${disp} mol my_one_gas pressure ${Pfin} tfac_insert ${tfac} full_energy overlap_cutoff ${overlap_cutoff_value}
fix f3 gas gcmc 100 5 5 0 12345 ${Tfin} ${mu} ${disp} mol my_one_gas pressure ${Pfin} tfac_insert ${tfac} full_energy overlap_cutoff ${overlap_cutoff_value}
fix f3 gas gcmc 100 5 5 0 12345 303 ${mu} ${disp} mol my_one_gas pressure ${Pfin} tfac_insert ${tfac} full_energy overlap_cutoff ${overlap_cutoff_value}
fix f3 gas gcmc 100 5 5 0 12345 303 -5.46 ${disp} mol my_one_gas pressure ${Pfin} tfac_insert ${tfac} full_energy overlap_cutoff ${overlap_cutoff_value}
fix f3 gas gcmc 100 5 5 0 12345 303 -5.46 0.01 mol my_one_gas pressure ${Pfin} tfac_insert ${tfac} full_energy overlap_cutoff ${overlap_cutoff_value}
fix f3 gas gcmc 100 5 5 0 12345 303 -5.46 0.01 mol my_one_gas pressure 13.0 tfac_insert ${tfac} full_energy overlap_cutoff ${overlap_cutoff_value}
fix f3 gas gcmc 100 5 5 0 12345 303 -5.46 0.01 mol my_one_gas pressure 13.0 tfac_insert 1.66666666666667 full_energy overlap_cutoff ${overlap_cutoff_value}
fix f3 gas gcmc 100 5 5 0 12345 303 -5.46 0.01 mol my_one_gas pressure 13.0 tfac_insert 1.66666666666667 full_energy overlap_cutoff 1

run             20000 # 10 ps
Hybrid pair style last /omp style table
Last active /omp style is pair_style table
0 atoms in group FixGCMC:gcmc_exclusion_group:f3
0 atoms in group FixGCMC:rotation_gas_atoms:f3
Neighbor list info ...
  update: every = 1 steps, delay = 0 steps, check = yes
  max neighbors/atom: 2000, page size: 100000
  master list distance cutoff = 14.99
  ghost atom cutoff = 14.99
  binsize = 7.495, bins = 4 4 4
  4 neighbor lists, perpetual/occasional/extra = 4 0 0
  (1) pair airebo, perpetual, skip from (3)
      attributes: full, newton on, ghost, omp, cut 12.2
      pair build: skip/ghost/omp
      stencil: none
      bin: none
  (2) pair table, perpetual, skip from (4)
      attributes: half, newton on, omp
      pair build: skip/omp
      stencil: none
      bin: none
  (3) neighbor class addition, perpetual
      attributes: full, newton on, ghost, omp, cut 12.2
      pair build: full/bin/ghost/omp
      stencil: full/ghost/bin/3d
      bin: standard
  (4) neighbor class addition, perpetual
      attributes: half, newton on, omp
      pair build: half/bin/newton/omp
      stencil: half/bin/3d
      bin: standard
Per MPI rank memory allocation (min/avg/max) = 9.76 | 9.76 | 9.76 Mbytes
   Step          Temp          Volume         Press          TotEng         v_ngas         v_wtp          v_molL          v_mc     
         0   303            13945.313     -5685.9335     -2305.6824      0              0              0              0            
       100   301.13975      14001.061     -3513.277      -2305.044       0              0              0              0            
       200   282.19959      14393.069     -3814.0473     -2303.8234      0              0              0              0            
       300   284.77725      14290.295     -3560.7263     -2303.4757      6              0.17095847     0.69721917     0.70279692   
       400   331.8676       14070.71      -2650.743      -2302.8535      2              0.057051179    0.23603328     0.23792154   
       500   288.53395      14021.422     -6449.8015     -2302.8406      6              0.17095847     0.71058895     0.71627366   
       600   303.234        13352.762     -1846.7821     -2304.3455      4              0.1140373      0.49744849     0.50142808   
       700   276.83312      13217.048     -1548.2729     -2305.1254      6              0.17095847     0.75383452     0.7598652    
       800   306.81344      13065.955     -2066.9404     -2304.8767      6              0.17095847     0.7625518      0.76865222   
       900   324.35284      12939.488     -1948.4394     -2303.7801      6              0.17095847     0.77000478     0.77616481   
      1000   286.74313      12972.167     -2125.6992     -2303.9728      4              0.1140373      0.51204333     0.51613968   
      1100   332.10747      12659.558      1102.8938     -2304.4001      8              0.2278148      1.0493749      1.0577699    
      1200   309.96856      12413.241     -1841.8789     -2305.2809      4              0.1140373      0.5350989      0.53937969   
      1300   308.30823      11912.343     -618.19565     -2306.4865      8              0.2278148      1.1151981      1.1241197    
      1400   306.74307      11492.156      828.56565     -2307.1597      4              0.1140373      0.57798656     0.58261045   
      1500   294.79805      11124.847     -1294.791      -2307.5858      4              0.1140373      0.59706992     0.60184648   
      1600   324.5769       10740.161      3341.1224     -2306.8792      8              0.2278148      1.2369109      1.2468062    
      1700   319.56811      10556.472      1930.1484     -2307.2848      12             0.3413334      1.887651       1.9027522    
      1800   314.18381      10189.596      30.381215     -2309.2161      16             0.45459398     2.6074878      2.6283477    
      1900   307.59582      9807.3583      2250.9091     -2309.9462      12             0.3413334      2.0318351      2.0480898    
      2000   286.30128      9560.8884      1478.4536     -2310.1119      10             0.28460641     1.7368447      1.7507395    
      2100   297.1415       9397.3788      3874.9867     -2308.6182      8              0.2278148      1.413652       1.4249612    
      2200   295.70605      9508.2651      4831.1173     -2307.629       8              0.2278148      1.3971658      1.4083432    
      2300   315.29292      9605.6781      2995.6428     -2306.6184      10             0.28460641     1.7287461      1.7425761    
      2400   311.15966      9563.1279      3220.4496     -2306.0948      12             0.3413334      2.0837256      2.1003954    
      2500   344.22579      9598.1783      2566.3702     -2307.5017      14             0.39799589     2.4221357      2.4415128    
      2600   320.53654      9700.1108      1883.9878     -2308.6573      10             0.28460641     1.7119164      1.7256117    
      2700   308.34564      9785.2448      4021.5008     -2309.3593      14             0.39799589     2.3758313      2.3948379    
      2800   282.17526      9994.5801      5889.1981     -2309.0883      14             0.39799589     2.3260697      2.3446783    
      2900   300.89478      10370.823      1816.0889     -2307.7815      10             0.28460641     1.6012017      1.6140113    
      3000   300.85223      10654.962      1385.3326     -2307.1187      8              0.2278148      1.2468016      1.256776     
      3100   321.79761      10800.898      3811.2437     -2306.3929      10             0.28460641     1.5374443      1.5497438    
      3200   322.77423      10910.27       1812.8337     -2305.6705      12             0.3413334      1.8264382      1.8410497    
      3300   324.99522      10763.847      474.38702     -2305.6743      10             0.28460641     1.5427364      1.5550782    
      3400   315.56979      10564.208      1989.8484     -2306.8592      10             0.28460641     1.5718905      1.5844656    
      3500   294.25096      10502.383      1516.9723     -2307.7903      10             0.28460641     1.5811439      1.5937931    
      3600   293.32782      10392.506      2280.9217     -2307.3223      10             0.28460641     1.5978609      1.6106438    
      3700   321.48444      10356.553     -114.52974     -2306.3114      12             0.3413334      1.9240894      1.9394821    
      3800   317.26904      10268.559     -1532.6038     -2306.9027      14             0.39799589     2.264007       2.2821191    
      3900   311.92003      10065.498      776.77893     -2308.8257      14             0.39799589     2.309681       2.3281585    
      4000   321.83084      9778.2437      616.50347     -2308.9173      12             0.3413334      2.0378848      2.0541879    
      4100   290.39306      9568.828       277.15099     -2308.947       12             0.3413334      2.0824844      2.0991442    
      4200   313.99213      9463.7222      2076.3359     -2308.0819      14             0.39799589     2.4565483      2.4762006    
      4300   314.32039      9566.6279     -392.12538     -2307.0618      10             0.28460641     1.7358027      1.7496892    
      4400   326.92813      9778.161      -2388.7607     -2306.4474      14             0.39799589     2.3775524      2.3965728    
      4500   313.37882      9724.9643     -401.72285     -2306.9267      16             0.45459398     2.7320662      2.7539227    
      4600   313.04267      9610.6984     -1052.4855     -2308.0629      8              0.2278148      1.3822745      1.3933327    
      4700   293.29701      9613.8056     -2486.0218     -2308.3231      10             0.28460641     1.7272846      1.7411029    
      4800   317.33862      9663.4148      865.07783     -2308.1265      8              0.2278148      1.3747338      1.3857317    
      4900   304.15788      9881.5293     -437.98502     -2307.8001      8              0.2278148      1.3443894      1.3551445    
      5000   310.57324      10189.327     -2800.0313     -2306.9934      6              0.17095847     0.97783366     0.98565633   
      5100   323.80988      10291.998     -1653.3736     -2306.2412      2              0.057051179    0.32269301     0.32527455   
      5200   297.54242      10301.897     -1471.3479     -2306.9371      6              0.17095847     0.96714882     0.97488601   
      5300   289.26682      10250.13      -2145.122      -2308.3568      12             0.3413334      1.9440665      1.959619     
      5400   307.442        10067.024     -2246.709      -2308.1815      12             0.3413334      1.9794266      1.995262     
      5500   317.36124      9877.5561     -908.34248     -2307.2419      14             0.39799589     2.3536278      2.3724568    
      5600   319.28358      9800.3712     -159.12098     -2306.7076      14             0.39799589     2.3721643      2.3911416    
      5700   305.86488      9787.535      -863.4835      -2308.2498      12             0.3413334      2.0359503      2.0522379    
      5800   294.39931      9763.6969     -157.1706      -2309.265       12             0.3413334      2.0409211      2.0572484    
      5900   287.99555      9778.5581      445.4252      -2308.6598      16             0.45459398     2.7170924      2.7388292    
      6000   302.59525      9682.2325     -666.77613     -2307.5272      14             0.39799589     2.4011085      2.4203173    
      6100   303.9894       9521.3326      2021.2226     -2306.7323      12             0.3413334      2.0928724      2.1096154    
      6200   313.36983      9612.3743     -755.91828     -2306.6972      16             0.45459398     2.7640669      2.7861795    
      6300   320.70519      9660.2623      903.1402      -2307.1764      16             0.45459398     2.7503649      2.7723678    
      6400   287.60741      9792.5466     -294.11349     -2308.911       16             0.45459398     2.7132111      2.7349168    
      6500   295.20878      9850.0481     -268.44586     -2308.8244      16             0.45459398     2.6973722      2.7189512    
      6600   294.32756      9900.4278      88.186083     -2307.9112      16             0.45459398     2.6836463      2.7051154    
      6700   315.01346      9939.8526      202.81006     -2307.0918      14             0.39799589     2.3388768      2.3575878    
      6800   319.50927      9987.4474     -44.269327     -2307.0524      18             0.51112778     2.9927969      3.0167393    
      6900   311.47719      10098.678      360.25398     -2307.1614      16             0.45459398     2.6309627      2.6520104    
      7000   315.89388      10133.193      892.44667     -2307.3785      16             0.45459398     2.6220013      2.6429773    
      7100   302.57773      10222.489     -3322.7769     -2307.5365      16             0.45459398     2.5990976      2.6198904    
      7200   294.88618      10101.044     -1644.9264     -2307.7323      12             0.3413334      1.9727599      1.988542     
      7300   286.46083      9983.0603     -614.07976     -2307.6238      12             0.3413334      1.9960748      2.0120434    
      7400   302.99202      9809.1921     -1191.2287     -2307.6223      12             0.3413334      2.0314552      2.0477069    
      7500   309.79243      9645.8781      568.25219     -2308.0498      8              0.2278148      1.3772331      1.388251     
      7600   296.85159      9675.7138     -2279.0511     -2309.4836      6              0.17095847     1.0297398      1.0379777    
      7700   272.92032      9651.286       182.40569     -2310.1807      6              0.17095847     1.0323461      1.0406049    
      7800   302.12934      9728.8167     -1128.9469     -2308.7051      8              0.2278148      1.3654922      1.3764161    
      7900   310.18766      9718.9471     -2607.8587     -2307.9613      6              0.17095847     1.0251591      1.0333604    
      8000   311.22108      9682.2346     -53.705622     -2307.2756      10             0.28460641     1.7150771      1.7287977    
      8100   310.68095      9692.3065      449.24454     -2307.0306      10             0.28460641     1.7132949      1.7270012    
      8200   320.72102      9725.0992     -2303.4946     -2306.9688      10             0.28460641     1.7075177      1.7211778    
      8300   298.90041      9828.0478     -1599.2374     -2308.3111      10             0.28460641     1.6896315      1.7031485    
      8400   294.9464       9885.1396     -40.596868     -2308.7311      16             0.45459398     2.6877968      2.7092991    
      8500   297.99947      9970.5739     -2404.3078     -2308.6223      16             0.45459398     2.664766       2.6860841    
      8600   317.22807      10054.433     -2483.2012     -2307.8401      20             0.5675974      3.3031755      3.3296009    
      8700   319.50493      10000.494      366.30404     -2307.3527      14             0.39799589     2.3246941      2.3432917    
      8800   301.27677      9950.8811     -802.156       -2307.1868      16             0.45459398     2.6700396      2.6913999    
      8900   334.37854      9894.2339     -772.48946     -2307.2029      16             0.45459398     2.6853262      2.7068089    
      9000   296.54497      9817.7984     -1595.1053     -2307.646       10             0.28460641     1.6913954      1.7049265    
      9100   302.58824      9780.9184     -1473.5548     -2308.3274      10             0.28460641     1.697773       1.7113551    
      9200   290.0011       9725.0176      1193.855      -2309.0827      10             0.28460641     1.707532       1.7211923    
      9300   279.97445      9738.4281     -1651.4236     -2309.0642      10             0.28460641     1.7051806      1.7188221    
      9400   298.53396      9689.2566      446.94467     -2307.5374      10             0.28460641     1.7138341      1.7275448    
      9500   317.99235      9649.4436      3024.5697     -2306.9161      14             0.39799589     2.4092674      2.4285416    
      9600   309.83618      9716.2424     -1526.2026     -2307.3144      12             0.3413334      2.050889       2.0672961    
      9700   291.98362      9687.3671      5.6124333     -2308.1142      6              0.17095847     1.0285011      1.0367291    
      9800   279.77231      9678.2774      2306.1192     -2309.3502      6              0.17095847     1.029467       1.0377027    
      9900   289.99147      9692.2844      2248.3499     -2309.4675      6              0.17095847     1.0279792      1.0362031    
     10000   295.42807      9775.3611     -544.78456     -2307.4765      14             0.39799589     2.3782334      2.3972593    
     10100   318.56555      9876.215       698.84671     -2307.138       10             0.28460641     1.681391       1.6948421    
     10200   312.71825      9921.5308      1455.978      -2307.1207      10             0.28460641     1.6737114      1.6871011    
     10300   316.98389      9985.0844     -1969.5869     -2307.6133      6              0.17095847     0.99783506     1.0058177    
     10400   301.92791      9936.6181     -133.67464     -2308.5226      2              0.057051179    0.33423402     0.33690789   
     10500   289.68318      9898.2817      1485.1173     -2309.3125      10             0.28460641     1.6776426      1.6910637    
     10600   306.37995      9852.5754      305.06744     -2308.7429      10             0.28460641     1.6854252      1.6989086    
     10700   309.16911      9774.8947     -1146.1019     -2307.0972      10             0.28460641     1.6988192      1.7124098    
     10800   320.31425      9701.9868     -1344.7158     -2306.8569      4              0.1140373      0.68463416     0.69011123   
     10900   308.29982      9658.6001      440.60932     -2307.5988      6              0.17095847     1.0315643      1.0398168    
     11000   302.22925      9662.4575      379.01661     -2308.5606      8              0.2278148      1.37487        1.385869     
     11100   290.0671       9661.7014     -533.02836     -2308.7197      12             0.3413334      2.0624664      2.0789661    
     11200   309.18894      9642.2428      813.45        -2307.7146      8              0.2278148      1.3777524      1.3887744    
     11300   330.88066      9639.4902      1819.0264     -2306.4272      4              0.1140373      0.6890729      0.69458549   
     11400   317.41829      9787.076      -2347.6057     -2306.9949      6              0.17095847     1.0180229      1.0261671    
     11500   297.80914      9822.8626     -943.48147     -2308.0494      4              0.1140373      0.67620935     0.68161902   
     11600   287.44164      9832.0706      3355.0759     -2308.3822      2              0.057051179    0.33778803     0.34049033   
     11700   306.43333      9928.7216     -955.77534     -2307.4231      2              0.057051179    0.33449984     0.33717584   
     11800   324.62889      9941.6164     -1743.1511     -2306.3442      2              0.057051179    0.33406597     0.3367385    
     11900   316.22112      9954.9619      196.65088     -2306.5103      2              0.057051179    0.33361813     0.33628707   
     12000   312.18246      9992.9838     -70.551875     -2307.2919      4              0.1140373      0.66469752     0.6700151    
     12100   310.99396      10024.562     -3021.479      -2308.2819      6              0.17095847     0.99390546     1.0018567    
     12200   312.92687      9899.3272     -1479.3061     -2308.3778      8              0.2278148      1.3419723      1.3527081    
     12300   322.96306      9823.0651      507.30563     -2307.9672      6              0.17095847     1.0142931      1.0224075    
     12400   325.76431      9706.9681     -1165.7383     -2306.4002      10             0.28460641     1.7107071      1.7243927    
     12500   326.47374      9590.4239     -1995.7037     -2305.6921      8              0.2278148      1.3851967      1.3962782    
     12600   321.05636      9598.0082     -1355.3001     -2306.7493      8              0.2278148      1.3841021      1.3951749    
     12700   302.51889      9648.3902     -1467.441      -2307.5284      8              0.2278148      1.3768746      1.3878896    
     12800   322.24989      9688.5991     -1268.3916     -2307.6845      6              0.17095847     1.0283703      1.0365972    
     12900   314.03204      9689.379       516.60644     -2307.9447      10             0.28460641     1.7138125      1.727523     
     13000   295.315        9712.0889     -975.12978     -2309.3779      6              0.17095847     1.025883       1.0340901    
     13100   272.17754      9657.5201      336.08455     -2309.7862      8              0.2278148      1.3755729      1.3865775    
     13200   312.73358      9787.8769     -638.03095     -2307.8312      10             0.28460641     1.696566       1.7101385    
     13300   315.45657      9884.267      -903.17016     -2307.204       10             0.28460641     1.6800213      1.6934614    
     13400   311.77523      9932.7294      1532.7795     -2307.2151      14             0.39799589     2.3405541      2.3592785    
     13500   303.29041      10058.52      -483.29513     -2307.739       12             0.3413334      1.9811         1.9969488    
     13600   311.56404      9980.9412      1546.4681     -2307.8343      16             0.45459398     2.661998       2.683294     
     13700   299.63369      9926.9615      1632.8114     -2307.2025      16             0.45459398     2.6764732      2.697885     
     13800   314.68096      9856.2625      345.26947     -2306.4112      14             0.39799589     2.3587126      2.3775823    
     13900   315.666        9794.5896      2346.5036     -2306.9793      12             0.3413334      2.0344839      2.0507597    
     14000   300.76983      9741.9335      2185.1563     -2308.5307      12             0.3413334      2.0454805      2.0618443    
     14100   307.33406      9758.1173     -416.56127     -2308.3957      12             0.3413334      2.042088       2.0584247    
     14200   325.44081      9749.1572     -922.9616      -2307.7847      14             0.39799589     2.3846256      2.4037027    
     14300   308.46439      9609.6575      3959.307      -2306.984       10             0.28460641     1.7280302      1.7418545    
     14400   335.44693      9736.3648     -1335.345      -2305.7374      12             0.3413334      2.0466504      2.0630236    
     14500   315.91231      9751.3798      347.57454     -2306.5698      14             0.39799589     2.3840821      2.4031548    
     14600   316.98948      9704.4995      1501.1829     -2307.1196      18             0.51112778     3.080056       3.1046964    
     14700   316.76951      9759.1429     -1017.1172     -2307.7054      18             0.51112778     3.0628101      3.0873126    
     14800   310.44245      9756.6812     -957.76247     -2308.5786      16             0.45459398     2.7231848      2.7449703    
     14900   290.55026      9796.5347     -1724.8262     -2308.8645      14             0.39799589     2.3730933      2.392078     
     15000   314.20451      9866.3796     -1383.6034     -2308.4921      18             0.51112778     3.0295208      3.0537569    
     15100   323.06275      9931.5349     -2585.684      -2306.9226      20             0.5675974      3.3440508      3.3708033    
     15200   322.69032      9899.8616     -672.005       -2306.54        18             0.51112778     3.0192747      3.0434289    
     15300   308.93671      9887.6869     -1073.2076     -2307.6997      16             0.45459398     2.6871043      2.7086012    
     15400   288.53047      9904.8776     -4816.2945     -2308.292       12             0.3413334      2.0118305      2.0279251    
     15500   306.91003      9764.9169     -1838.4698     -2308.1816      12             0.3413334      2.0406661      2.0569914    
     15600   294.43305      9682.4165     -1260.9404     -2308.2726      12             0.3413334      2.0580539      2.0745183    
     15700   299.75762      9682.7133     -720.06038     -2308.0271      6              0.17095847     1.0289954      1.0372274    
     15800   330.50604      9695.878      -632.32005     -2306.5625      10             0.28460641     1.7126638      1.7263651    
     15900   322.34786      9754.386      -2445.1646     -2305.6401      8              0.2278148      1.3619128      1.3728081    
     16000   317.15611      9795.574      -2312.7755     -2306.4692      8              0.2278148      1.3561863      1.3670358    
     16100   305.14569      9714.9039     -124.37847     -2307.3051      10             0.28460641     1.7093096      1.7229841    
     16200   299.40584      9744.1583     -2846.4271     -2307.6771      8              0.2278148      1.3633423      1.374249     
     16300   311.29592      9713.5178     -135.20733     -2308.1429      12             0.3413334      2.0514643      2.067876     
     16400   292.61276      9702.9579      295.85082     -2308.0487      10             0.28460641     1.7114141      1.7251054    
     16500   317.70991      9802.0849     -1998.8452     -2307.2043      14             0.39799589     2.3717495      2.3907235    
     16600   320.2445       9861.2631      706.70946     -2306.7154      16             0.45459398     2.6943046      2.715859     
     16700   316.47747      9956.5103     -1429.5616     -2307.5111      14             0.39799589     2.3349637      2.3536434    
     16800   290.04996      9890.7089     -227.2848      -2308.6813      10             0.28460641     1.6789271      1.6923585    
     16900   291.48531      9892.9358     -1362.8267     -2308.5413      14             0.39799589     2.3499688      2.3687685    
     17000   310.54909      9757.3487      3.7979087     -2307.7277      12             0.3413334      2.0422489      2.0585869    
     17100   312.75725      9655.9409      1023.7724     -2306.9272      14             0.39799589     2.4076463      2.4269075    
     17200   328.77685      9753.4927     -1443.0239     -2307.2677      20             0.5675974      3.4050938      3.4323346    
     17300   310.61061      9679.5076      3222.2156     -2307.8802      16             0.45459398     2.7448965      2.7668556    
     17400   304.33175      9734.9247      780.93009     -2308.2467      16             0.45459398     2.7292708      2.751105     
     17500   297.23186      9753.4818      447.24302     -2308.674       12             0.3413334      2.0430586      2.059403     
     17600   308.0955       9739.9458     -401.19616     -2308.4311      12             0.3413334      2.0458979      2.0622651    
     17700   318.65444      9646.6025      2269.5992     -2307.6782      8              0.2278148      1.3771297      1.3881468    
     17800   319.8183       9631.6355      465.82205     -2306.9219      10             0.28460641     1.7240871      1.7378798    
     17900   327.01047      9709.2296     -723.03274     -2306.6114      8              0.2278148      1.3682469      1.3791928    
     18000   292.45622      9698.8298      3127.7317     -2308.0664      6              0.17095847     1.0272855      1.0355038    
     18100   296.47284      9825.3778      822.30702     -2308.7902      6              0.17095847     1.0140544      1.0221668    
     18200   295.47699      9901.4048     -583.15544     -2308.507       8              0.2278148      1.3416907      1.3524243    
     18300   320.51276      9847.3257      908.33888     -2307.6521      8              0.2278148      1.349059       1.3598514    
     18400   314.32728      9845.9418      50.149423     -2306.7287      10             0.28460641     1.6865607      1.7000532    
     18500   327.36207      9765.761       748.54186     -2305.0021      8              0.2278148      1.3603265      1.3712091    
     18600   322.19746      9711.4439      2076.0017     -2305.6478      8              0.2278148      1.3679349      1.3788784    
     18700   311.15303      9713.3845     -27.200422     -2306.7559      10             0.28460641     1.709577       1.7232536    
     18800   303.81304      9708.1374      34.258434     -2307.3953      8              0.2278148      1.3684008      1.379348     
     18900   288.38451      9742.0475     -532.94711     -2307.9494      10             0.28460641     1.7045471      1.7181835    
     19000   297.42488      9694.6506      472.37586     -2308.2987      12             0.3413334      2.0554567      2.0719004    
     19100   294.58464      9695.2317     -350.48981     -2307.6902      10             0.28460641     1.7127779      1.7264801    
     19200   322.83604      9692.2353      478.64184     -2306.4472      12             0.3413334      2.0559689      2.0724167    
     19300   322.82089      9707.5501      524.68445     -2306.5827      8              0.2278148      1.3684836      1.3794315    
     19400   294.38029      9810.0898      180.76983     -2307.9962      10             0.28460641     1.6927245      1.7062662    
     19500   304.12515      9758.9124      2146.4666     -2308.352       14             0.39799589     2.3822419      2.4012999    
     19600   297.1552       9827.7273     -2600.7615     -2308.1226      18             0.51112778     3.0414358      3.0657673    
     19700   299.79947      9888.6671     -684.87995     -2307.7276      14             0.39799589     2.3509832      2.3697911    
     19800   320.49499      9780.7685      2264.6027     -2306.2754      8              0.2278148      1.3582392      1.3691051    
     19900   335.44718      9938.2487     -3613.3578     -2305.8908      10             0.28460641     1.6708959      1.684263     
     20000   317.3704       9892.4753     -50.123624     -2306.6649      12             0.3413334      2.0143527      2.0304676    
Loop time of 101.515 on 1 procs for 20000 steps with 366 atoms

Performance: 8.511 ns/day, 2.820 hours/ns, 197.015 timesteps/s, 72.108 katom-step/s
99.3% CPU use with 1 MPI tasks x no OpenMP threads

MPI task timing breakdown:
Section |  min time  |  avg time  |  max time  |%varavg| %total
---------------------------------------------------------------
Pair    | 36.007     | 36.007     | 36.007     |   0.0 | 35.47
Bond    | 0.00086556 | 0.00086556 | 0.00086556 |   0.0 |  0.00
Neigh   | 9.8942     | 9.8942     | 9.8942     |   0.0 |  9.75
Comm    | 0.19207    | 0.19207    | 0.19207    |   0.0 |  0.19
Output  | 0.804      | 0.804      | 0.804      |   0.0 |  0.79
Modify  | 54.6       | 54.6       | 54.6       |   0.0 | 53.79
Other   |            | 0.01647    |            |       |  0.02

Nlocal:            366 ave         366 max         366 min
Histogram: 1 0 0 0 0 0 0 0 0 0
Nghost:           4754 ave        4754 max        4754 min
Histogram: 1 0 0 0 0 0 0 0 0 0
Neighs:              0 ave           0 max           0 min
Histogram: 1 0 0 0 0 0 0 0 0 0

Total # of neighbors = 0
Ave neighs/atom = 0
Ave special neighs/atom = 0
Neighbor list builds = 2628
Dangerous builds = 0

#-------------------- End ----------------------------------------------------------------
Total wall time: 0:01:41
