LAMMPS (2 Aug 2023)
package omp 8
WARNING: OpenMP support not enabled during compilation; using 1 thread only. (../fix_omp.cpp:116)
#-------------------- Initialization -----------------------------------------------------
clear
package omp 8
WARNING: OpenMP support not enabled during compilation; using 1 thread only. (../fix_omp.cpp:116)
echo            both    # echoes each input script command to both log file and screen
#-----------------------------------------------------------------------------------------
units           metal   # determines units of all quantities used in the input file
atom_style      full
boundary        p p p   # periodic boundary condition
#-----------------------------------------------------------------------------------------
variable Tini equal 273+30   # [K] (Initial temperature)
variable Tfin equal 273+30   # [K] (Annealing temperature)

variable Pfin index   13.0   # [bar] (Note 1.0 bar = 0.1 MPa)

variable Nout equal    100   # every 100 time steps to the specified file

variable   natom index 5
variable   nmove index 5
variable   mu    index -5.46 # Fermi Energy (eV) from MOPAC2016 PM7
variable   disp  index 0.01

variable   tfac  equal 5.0/3.0 # (3 trans + 2 rot)/(3 trans) for molecular (2 atoms)
# trans = 3, rot = 2 (line), rot = 3 (non-line), vib = 3n-5 (line), vib = 3n-6 (non-line)
# total = 3n = 3+2+3n-5 = 3+3+3n-6
# vib = about 0.0 at R.T. for molecular (2 atoms)

#-------------------- Atom & Lattice description ----------------------------------------
read_data       data.lammps
Reading data file ...
  orthogonal box = (0 0 0) to (24.07 24.07 24.07)
  1 by 1 by 1 MPI processor grid
  reading atoms ...
  360 atoms
Finding 1-2 1-3 1-4 neighbors ...
  special bond factors lj:    0        0        0       
  special bond factors coul:  0        0        0       
     0 = max # of 1-2 neighbors
     0 = max # of 1-3 neighbors
     0 = max # of 1-4 neighbors
     1 = max # of special neighbors
  special bonds CPU = 0.000 seconds
  read_data CPU = 0.005 seconds

replicate 1 1 1
Replication is creating a 1x1x1 = 1 times larger system...
  orthogonal box = (0 0 0) to (24.07 24.07 24.07)
  1 by 1 by 1 MPI processor grid
  360 atoms
Finding 1-2 1-3 1-4 neighbors ...
  special bond factors lj:    0        0        0       
  special bond factors coul:  0        0        0       
     0 = max # of 1-2 neighbors
     0 = max # of 1-3 neighbors
     0 = max # of 1-4 neighbors
     1 = max # of special neighbors
  special bonds CPU = 0.000 seconds
  replicate CPU = 0.001 seconds

molecule        my_one_gas ./molecular_files/H2_one.txt
Read molecule template my_one_gas:
  1 molecules
  0 fragments
  1 atoms with max type 3
  0 bonds with max type 0
  0 angles with max type 0
  0 dihedrals with max type 0
  0 impropers with max type 0
group           gas type 3
0 atoms in group gas
variable        atoms_of_gas equal 0.5 # The number of atoms per gas molecule

mass 1 12.0107 # C
mass 2 1.00794 # H
mass 3 2.016   # H2

variable elem string "C H H2" # specifies the potential file used

# set overlap_cutoff
variable overlap_cutoff_value equal 1.0

#-------------------- Force field --------------------------------------------------------
# case 1, Lennard-Jones (LJ) potential
#pair_style hybrid airebo 3.0 1 0 lj/cut 10.2
#pair_coeff * * airebo ./potentials/CH.airebo C H NULL
#pair_coeff 1 3 lj/cut 0.003795 3.194 #   C-H2
#pair_coeff 2 3 lj/cut 0.002456 2.764 #   H-H2
#pair_coeff 3 3 lj/cut 0.003162 2.958 #  H2-H2

# case 2, Feynman-Hibbs effective (FHE) potential
pair_style hybrid airebo 3.0 1 0 table linear 1000
pair_coeff * * airebo ./potentials/CH.airebo C H NULL
Reading airebo potential file ./potentials/CH.airebo with DATE: 2011-10-25
pair_coeff 1 3 table  ./potentials/fhe_C-h2_303K.txt ENTRY
Reading pair table potential file ./potentials/fhe_C-h2_303K.txt with DATE: 2024-07-07
WARNING: 1166 of 1200 force values in table ENTRY are inconsistent with -dE/dr.
WARNING:  Should only be flagged at inflection points (../pair_table.cpp:466)
pair_coeff 2 3 table  ./potentials/fhe_H-h2_303K.txt ENTRY
Reading pair table potential file ./potentials/fhe_H-h2_303K.txt with DATE: 2024-07-07
WARNING: 1152 of 1200 force values in table ENTRY are inconsistent with -dE/dr.
WARNING:  Should only be flagged at inflection points (../pair_table.cpp:466)
pair_coeff 3 3 table  ./potentials/fhe_h2-h2_303K.txt ENTRY
Reading pair table potential file ./potentials/fhe_h2-h2_303K.txt with DATE: 2024-07-07
WARNING: 1161 of 1200 force values in table ENTRY are inconsistent with -dE/dr.
WARNING:  Should only be flagged at inflection points (../pair_table.cpp:466)

#-------------------- Energy Minimization (failed) ---------------------------------------
# Note: ERROR: Fix gcmc region extends outside simulation box (../fix_gcmc.cpp:486)
# 0 [K], structure optimization
#fix             emin all box/relax x 0.0 y 0.0 z 0.0
#fix             emin all box/relax aniso 0.0
#fix             emin all box/relax iso ${Pfin}
#min_style       cg
#min_modify      dmax 0.2
#min_modify      line quadratic
#minimize        1.0e-4 1.0e-6 100 1000
#unfix           emin

#-------------------- Settings -----------------------------------------------------------
reset_timestep 0

timestep 0.0005  # 0.5 [fs] (Recommend 0.1-1.0 [fs]), sets the timestep for subsequent simulations

variable        ngas equal count(gas)/${atoms_of_gas} # The number of molecules (e.g., H2, N2, CO2, H2O, He, Ar, Kr, etc)
variable        ngas equal count(gas)/0.5 

variable        wtp  equal mass(gas)/mass(all)*100 # Mass Percent Concentration, wt.% [dimensionless] (Absolute, Not excess)

#variable        molc equal (v_ngas/6.022e23)/(vol*1e-30) # molar concentration [mol/m^3] (Absolute, Not excess)
variable        molL equal (v_ngas/6.022e23)/(vol*1e-27) # molar concentration [mol/L] = [mol/dm^3] (Absolute, Not excess)

variable        mc   equal (mass(gas)/6.022e23/1000)/(vol*1e-30) # Mass Concentration [kg/m^3] (Absolute, Not excess)

thermo ${Nout}   # computes and prints thermodynamic
thermo 100   
thermo_style custom step temp vol press etotal v_ngas v_wtp v_molL v_mc # specifies content of thermodynamic data to be printed in screen

#---------- output file settings --------------------------------------
dump            d1 all cfg ${Nout} cfg/run.*.cfg mass type xs ys zs id type vx vy vz fx fy fz
dump            d1 all cfg 100 cfg/run.*.cfg mass type xs ys zs id type vx vy vz fx fy fz
dump_modify     d1 element ${elem}
dump_modify     d1 element C H H2
#dump_modify     d1 sort id
#----------------------------------------------------------------------

velocity all create ${Tini} 12345 mom yes rot no # sets the velocity of a group of atoms
velocity all create 303 12345 mom yes rot no 

#-------------------- Run the simulation -------------------------------------------------
compute mdtemp all temp
compute_modify mdtemp dynamic/dof yes

## Equilibrium system, calculation settings
#fix f1 all nvt temp ${Tini} ${Tfin} $(20*dt)
fix f1 all npt temp ${Tini} ${Tfin} $(20*dt) iso 0.0 ${Pfin} $(200*dt)
fix f1 all npt temp 303 ${Tfin} $(20*dt) iso 0.0 ${Pfin} $(200*dt)
fix f1 all npt temp 303 303 $(20*dt) iso 0.0 ${Pfin} $(200*dt)
fix f1 all npt temp 303 303 0.010000000000000000208 iso 0.0 ${Pfin} $(200*dt)
fix f1 all npt temp 303 303 0.010000000000000000208 iso 0.0 13.0 $(200*dt)
fix f1 all npt temp 303 303 0.010000000000000000208 iso 0.0 13.0 0.10000000000000000555
fix_modify f1 temp mdtemp

# non-equilibrium system, calculation settings
#fix f1 all nve
#fix f2 all langevin ${Tini} ${Tfin} $(20*dt) 12345
#fix_modify f2 temp mdtemp

# GCMC
fix f3 gas gcmc ${Nout} ${natom} ${nmove} 0 12345 ${Tfin} ${mu} ${disp} mol my_one_gas pressure ${Pfin} tfac_insert ${tfac} full_energy overlap_cutoff ${overlap_cutoff_value}
fix f3 gas gcmc 100 ${natom} ${nmove} 0 12345 ${Tfin} ${mu} ${disp} mol my_one_gas pressure ${Pfin} tfac_insert ${tfac} full_energy overlap_cutoff ${overlap_cutoff_value}
fix f3 gas gcmc 100 5 ${nmove} 0 12345 ${Tfin} ${mu} ${disp} mol my_one_gas pressure ${Pfin} tfac_insert ${tfac} full_energy overlap_cutoff ${overlap_cutoff_value}
fix f3 gas gcmc 100 5 5 0 12345 ${Tfin} ${mu} ${disp} mol my_one_gas pressure ${Pfin} tfac_insert ${tfac} full_energy overlap_cutoff ${overlap_cutoff_value}
fix f3 gas gcmc 100 5 5 0 12345 303 ${mu} ${disp} mol my_one_gas pressure ${Pfin} tfac_insert ${tfac} full_energy overlap_cutoff ${overlap_cutoff_value}
fix f3 gas gcmc 100 5 5 0 12345 303 -5.46 ${disp} mol my_one_gas pressure ${Pfin} tfac_insert ${tfac} full_energy overlap_cutoff ${overlap_cutoff_value}
fix f3 gas gcmc 100 5 5 0 12345 303 -5.46 0.01 mol my_one_gas pressure ${Pfin} tfac_insert ${tfac} full_energy overlap_cutoff ${overlap_cutoff_value}
fix f3 gas gcmc 100 5 5 0 12345 303 -5.46 0.01 mol my_one_gas pressure 13.0 tfac_insert ${tfac} full_energy overlap_cutoff ${overlap_cutoff_value}
fix f3 gas gcmc 100 5 5 0 12345 303 -5.46 0.01 mol my_one_gas pressure 13.0 tfac_insert 1.66666666666667 full_energy overlap_cutoff ${overlap_cutoff_value}
fix f3 gas gcmc 100 5 5 0 12345 303 -5.46 0.01 mol my_one_gas pressure 13.0 tfac_insert 1.66666666666667 full_energy overlap_cutoff 1

run             20000 # 10 ps
Hybrid pair style last /omp style table
Last active /omp style is pair_style table
0 atoms in group FixGCMC:gcmc_exclusion_group:f3
0 atoms in group FixGCMC:rotation_gas_atoms:f3
Neighbor list info ...
  update: every = 1 steps, delay = 0 steps, check = yes
  max neighbors/atom: 2000, page size: 100000
  master list distance cutoff = 14.99
  ghost atom cutoff = 14.99
  binsize = 7.495, bins = 4 4 4
  4 neighbor lists, perpetual/occasional/extra = 4 0 0
  (1) pair airebo, perpetual, skip from (3)
      attributes: full, newton on, ghost, omp, cut 12.2
      pair build: skip/ghost/omp
      stencil: none
      bin: none
  (2) pair table, perpetual, skip from (4)
      attributes: half, newton on, omp
      pair build: skip/omp
      stencil: none
      bin: none
  (3) neighbor class addition, perpetual
      attributes: full, newton on, ghost, omp, cut 12.2
      pair build: full/bin/ghost/omp
      stencil: full/ghost/bin/3d
      bin: standard
  (4) neighbor class addition, perpetual
      attributes: half, newton on, omp
      pair build: half/bin/newton/omp
      stencil: half/bin/3d
      bin: standard
Per MPI rank memory allocation (min/avg/max) = 9.76 | 9.76 | 9.76 Mbytes
   Step          Temp          Volume         Press          TotEng         v_ngas         v_wtp          v_molL          v_mc     
         0   303            13945.313     -5685.9335     -2305.6824      0              0              0              0            
       100   331.70377      14198.349     -3532.1692     -2302.8412      0              0              0              0            
       200   288.02575      14511.386     -2547.9389     -2303.2431      0              0              0              0            
       300   308.68958      14232.085     -483.19855     -2302.7915      6              0.17095847     0.70007082     0.70567138   
       400   329.3731       14067.125      611.84286     -2304.0212      2              0.057051179    0.23609343     0.23798218   
       500   276.1947       13544.292     -371.01466     -2305.189       6              0.17095847     0.73562112     0.74150609   
       600   298.15822      13224.092      1999.9212     -2304.6733      4              0.1140373      0.50228868     0.50630699   
       700   278.78146      13029.48      -1636.077      -2304.981       6              0.17095847     0.76468651     0.770804     
       800   339.26715      12933.026      480.31784     -2304.2158      6              0.17095847     0.77038949     0.7765526    
       900   312.5006       12836.025     -680.83333     -2304.5298      6              0.17095847     0.77621128     0.78242097   
      1000   290.63722      12814.42      -57.305998     -2304.6921      4              0.1140373      0.51834663     0.5224934    
      1100   296.91814      12533.602      335.99271     -2306.7687      8              0.2278148      1.0599206      1.0684       
      1200   304.13039      11938.933     -1338.2053     -2307.393       4              0.1140373      0.55635722     0.56080808   
      1300   304.64506      11284.175      862.43363     -2307.7286      8              0.2278148      1.1772791      1.1866973    
      1400   313.20973      10817.891      149.2001      -2307.0995      0              0              0              0            
      1500   290.63122      10513.952      602.33987     -2310.0741      2              0.057051179    0.31588083     0.31840787   
      1600   294.71194      10327.182      1447.7467     -2310.6082      6              0.17095847     0.96478084     0.97249908   
      1700   292.94774      9958.9261      659.21169     -2311.1449      8              0.2278148      1.3339413      1.3446128    
      1800   313.80297      9509.3726      737.42994     -2309.4318      10             0.28460641     1.7462539      1.7602239    
      1900   306.8815       9423.5136     -398.02044     -2306.9582      12             0.3413334      2.1145971      2.1315139    
      2000   279.93188      9504.4532      2235.9316     -2307.7629      6              0.17095847     1.0482946      1.056681     
      2100   301.90439      9637.8507      659.17353     -2305.2517      10             0.28460641     1.7229753      1.7367591    
      2200   323.34618      9480.554       2895.8392     -2307.0978      12             0.3413334      2.1018745      2.1186895    
      2300   345.51206      9522.9513      2193.9193     -2307.3294      12             0.3413334      2.0925167      2.1092568    
      2400   325.20198      9550.4539      7180.0325     -2309.3842      14             0.39799589     2.4342393      2.4537132    
      2500   306.67289      9963.4968      5131.0295     -2309.4402      16             0.45459398     2.6666588      2.687992     
      2600   303.66918      10185.574      2435.2458     -2309.6902      12             0.3413334      1.9563881      1.9720392    
      2700   333.26512      10774.666      993.1561      -2306.4906      16             0.45459398     2.4658997      2.4856269    
      2800   332.47362      11184.316     -1337.3508     -2305.4771      14             0.39799589     2.0786332      2.0952622    
      2900   316.77903      11594.796     -1507.5661     -2306.2436      10             0.28460641     1.4321751      1.4436325    
      3000   291.90868      11690.613      986.64377     -2305.7576      6              0.17095847     0.85226221     0.8590803    
      3100   335.91723      11796.708     -686.10381     -2303.882       8              0.2278148      1.1261297      1.1351387    
      3200   296.9295       11877.118      1426.3173     -2306.7165      8              0.2278148      1.1185056      1.1274536    
      3300   295.38642      11956.97      -463.18031     -2306.3654      8              0.2278148      1.111036       1.1199242    
      3400   314.67524      12269.477     -525.61719     -2305.4135      8              0.2278148      1.0827375      1.0913994    
      3500   315.53447      12248.375     -661.71733     -2305.0186      10             0.28460641     1.3557536      1.3665996    
      3600   289.49949      12366.1       -982.00028     -2304.771       12             0.3413334      1.6114163      1.6243076    
      3700   313.81103      12273.644      1189.3386     -2305.6044      16             0.45459398     2.1647398      2.1820578    
      3800   292.76767      12174.574     -63.93816      -2305.8578      16             0.45459398     2.1823553      2.1998141    
      3900   298.42944      11895.206      776.75699     -2305.5486      20             0.5675974      2.792012       2.8143481    
      4000   288.55206      11785.838     -979.21047     -2306.7838      16             0.45459398     2.2543366      2.2723713    
      4100   300.03665      11584.516     -629.62506     -2306.6913      14             0.39799589     2.0068244      2.022879     
      4200   315.97951      11438.826     -2.5520341     -2305.876       14             0.39799589     2.0323843      2.0486433    
      4300   311.67174      11262.093     -85.457954     -2305.8864      10             0.28460641     1.4744842      1.4862801    
      4400   326.84263      10920.522      2547.9426     -2305.9598      10             0.28460641     1.520603       1.5327678    
      4500   315.77615      10465.835      2337.7196     -2308.2952      8              0.2278148      1.2693323      1.279487     
      4600   300.91271      10061.953      4148.6224     -2308.8064      8              0.2278148      1.3202827      1.330845     
      4700   305.99617      9697.5707      1480.8078     -2309.0527      6              0.17095847     1.0274189      1.0356382    
      4800   297.38914      9478.8945      1780.8972     -2309.2781      4              0.1140373      0.70074749     0.70635347   
      4900   307.84376      9623.0943     -676.98426     -2307.5482      6              0.17095847     1.0353704      1.0436534    
      5000   299.46611      9556.0057     -1141.2213     -2307.3163      6              0.17095847     1.0426393      1.0509804    
      5100   335.5055       9512.1283     -847.43508     -2303.4957      6              0.17095847     1.0474488      1.0558284    
      5200   306.94309      9475.8217     -1365.5493     -2305.7312      2              0.057051179    0.35048736     0.35329126   
      5300   308.02678      9592.7356      1923.3795     -2308.5748      6              0.17095847     1.0386471      1.0469563    
      5400   304.31406      9658.3064      850.96895     -2310.1359      12             0.3413334      2.0631914      2.0796969    
      5500   326.0247       9837.8642      836.81245     -2308.3857      10             0.28460641     1.6879455      1.7014491    
      5600   316.30185      9973.7808      753.9402      -2308.1872      12             0.3413334      1.9979319      2.0139153    
      5700   297.05069      10439.412      1027.3411     -2308.6558      10             0.28460641     1.5906814      1.6034068    
      5800   308.31852      10917.318      1344.267      -2307.1811      10             0.28460641     1.5210492      1.5332176    
      5900   310.00674      11189.645     -639.09403     -2307.1832      8              0.2278148      1.1872247      1.1967225    
      6000   304.16458      11334.895     -36.429108     -2306.6322      14             0.39799589     2.0510196      2.0674277    
      6100   322.2367       11276.808     -1124.3818     -2305.1954      10             0.28460641     1.4725602      1.4843406    
      6200   312.65393      11193.736      278.23349     -2305.4003      4              0.1140373      0.5933954      0.59814256   
      6300   310.3756       11230.677     -1962.1273     -2305.2465      4              0.1140373      0.59144355     0.5961751    
      6400   326.56934      11332.642     -338.79475     -2303.8846      8              0.2278148      1.1722442      1.1816221    
      6500   296.01887      11380.743     -473.14306     -2305.7819      8              0.2278148      1.1672896      1.1766279    
      6600   310.98169      11477.756     -420.22517     -2306.7945      8              0.2278148      1.1574234      1.1666828    
      6700   303.24265      11348.062      1061.0846     -2305.504       10             0.28460641     1.4633141      1.4750206    
      6800   321.63984      11025.16       266.38619     -2305.4816      12             0.3413334      1.8074055      1.8218647    
      6900   290.15584      10627.209      4239.6491     -2307.966       14             0.39799589     2.1876007      2.2051015    
      7000   313.28872      10378.476      1146.7605     -2306.501       14             0.39799589     2.2400294      2.2579496    
      7100   308.683        10071.881      2415.3285     -2309.0166      16             0.45459398     2.6379626      2.6590663    
      7200   305.70212      9988.5691      401.8403      -2309.3975      14             0.39799589     2.3274695      2.3460893    
      7300   321.55129      9697.4223     -123.24468     -2308.1127      14             0.39799589     2.3973474      2.4165262    
      7400   300.32143      9559.8759     -40.522533     -2307.8991      16             0.45459398     2.7792459      2.8014799    
      7500   313.80494      9515.0777     -1049.2235     -2307.8039      18             0.51112778     3.1413723      3.1665033    
      7600   278.64467      9625.9764      220.08798     -2307.0149      14             0.39799589     2.415141       2.4344621    
      7700   294.9637       9523.5087     -1570.1621     -2307.5468      10             0.28460641     1.7436618      1.7576111    
      7800   304.72702      9503.9235      1621.8157     -2309.8822      10             0.28460641     1.7472551      1.7612331    
      7900   292.10048      9627.0119     -20.869515     -2309.2418      10             0.28460641     1.7249152      1.7387145    
      8000   289.57749      9823.9185      795.89192     -2309.6875      10             0.28460641     1.6903417      1.7038644    
      8100   298.15192      10133.626      649.56325     -2309.9679      16             0.45459398     2.6218892      2.6428644    
      8200   301.08844      10315.84       695.69261     -2308.9419      16             0.45459398     2.5755775      2.5961821    
      8300   321.61857      10550.5        1906.7993     -2306.492       18             0.51112778     2.8330792      2.8557439    
      8400   311.46717      10755.757      511.69848     -2306.7269      14             0.39799589     2.1614555      2.1787472    
      8500   319.76868      10941.293      1505.1718     -2306.0563      22             0.62400296     3.3389759      3.3656877    
      8600   326.48077      11017.409      1139.777      -2304.1085      24             0.68034456     3.6173541      3.646293     
      8700   315.74975      11119.319     -237.73696     -2307.0497      22             0.62400296     3.2855173      3.3118014    
      8800   306.62272      11067.975     -861.11352     -2307.1823      16             0.45459398     2.4005516      2.4197561    
      8900   306.03484      10960.557     -1387.6833     -2305.4549      14             0.39799589     2.1210683      2.1380369    
      9000   322.62653      10873.235     -2218.9812     -2305.9921      14             0.39799589     2.1381024      2.1552073    
      9100   310.06776      10834.167     -4741.3574     -2307.6519      16             0.45459398     2.4523572      2.471976     
      9200   328.54515      10574.59      -2332.3663     -2305.7154      16             0.45459398     2.5125557      2.5326561    
      9300   329.92523      10329.336     -3296.1869     -2306.8115      18             0.51112778     2.8937389      2.9168888    
      9400   309.95657      10002.065      749.76765     -2308.679       18             0.51112778     2.9884231      3.0123304    
      9500   320.96048      9807.2302     -934.03641     -2307.7834      16             0.45459398     2.7091488      2.730822     
      9600   304.86336      9586.2708      1886.8056     -2307.6919      12             0.3413334      2.0786951      2.0953247    
      9700   303.57991      9481.7409      2135.3772     -2308.9495      16             0.45459398     2.8021485      2.8245657    
      9800   281.89201      9513.3267      2735.638      -2308.5304      8              0.2278148      1.3964225      1.4075938    
      9900   318.98039      9601.5955      1838.1361     -2305.4072      2              0.057051179    0.34589624     0.34866341   
     10000   336.65894      9549.7064      1815.8303     -2306.1658      6              0.17095847     1.0433271      1.0516737    
     10100   304.58308      9587.1581      113.34685     -2308.1682      10             0.28460641     1.7320856      1.7459423    
     10200   337.33418      9708.5865     -143.71167     -2306.9305      18             0.51112778     3.0787594      3.1033895    
     10300   314.7381       9904.6804      364.07558     -2307.9483      16             0.45459398     2.682494       2.703954     
     10400   300.71723      10164.135     -1831.538      -2308.2868      12             0.3413334      1.9605145      1.9761986    
     10500   291.30303      10356.697     -342.15347     -2307.8569      10             0.28460641     1.6033857      1.6162127    
     10600   290.2756       10503.875     -172.47349     -2308.4392      8              0.2278148      1.2647355      1.2748534    
     10700   307.78123      10562.855     -478.74667     -2306.9162      12             0.3413334      1.8865104      1.9016024    
     10800   294.0813       10637.946     -296.51669     -2307.6472      12             0.3413334      1.8731938      1.8881794    
     10900   295.84248      10562.297     -24.609381     -2307.3231      8              0.2278148      1.25774        1.2678019    
     11000   295.48169      10610.257      420.75697     -2307.824       8              0.2278148      1.2520548      1.2620713    
     11100   315.88497      10529.046      766.96639     -2306.3079      12             0.3413334      1.892568       1.9077085    
     11200   301.27489      10443.556      1301.8682     -2308.0981      10             0.28460641     1.5900502      1.6027706    
     11300   296.79077      10227.22       2118.6158     -2308.3915      12             0.3413334      1.9484214      1.9640087    
     11400   304.02175      9975.2237      2204.4046     -2308.4523      16             0.45459398     2.6635238      2.684832     
     11500   279.39117      9723.6346      2264.1111     -2309.4167      12             0.3413334      2.0493299      2.0657245    
     11600   310.32338      9554.1599      503.04927     -2308.4159      8              0.2278148      1.3904543      1.401578     
     11700   298.5836       9633.9662     -1534.6119     -2307.5308      6              0.17095847     1.034202       1.0424756    
     11800   312.54145      9712.9755     -2086.3834     -2306.3928      12             0.3413334      2.0515788      2.0679914    
     11900   330.17338      9704.1667     -1374.7883     -2305.2811      12             0.3413334      2.0534411      2.0698686    
     12000   303.73707      9573.1424      258.77152     -2308.1201      10             0.28460641     1.7346215      1.7484985    
     12100   298.20713      9525.5551     -48.805222     -2307.8889      6              0.17095847     1.0459723      1.0543401    
     12200   328.61014      9557.3882      2538.56       -2307.244       2              0.057051179    0.34749617     0.35027613   
     12300   308.65108      9826.3969      1971.9181     -2308.6771      4              0.1140373      0.67596614     0.68137387   
     12400   310.20051      10064.461      1628.7485     -2307.9822      4              0.1140373      0.65997686     0.66525667   
     12500   286.52778      10287.805      690.74012     -2308.4311      4              0.1140373      0.64564906     0.65081426   
     12600   307.14061      10431.37      -1149.9208     -2305.7745      8              0.2278148      1.2735262      1.2837144    
     12700   285.03497      10456.819     -361.86613     -2308.4464      6              0.17095847     0.95282006     0.96044262   
     12800   296.24234      10476.148     -2928.0321     -2306.94        4              0.1140373      0.63404138     0.63911372   
     12900   307.0306       10497.254     -2001.1283     -2305.3771      6              0.17095847     0.94914987     0.95674307   
     13000   316.10969      10461.396     -539.55513     -2304.9605      4              0.1140373      0.63493548     0.64001497   
     13100   320.41539      10425.111     -776.01763     -2306.1781      4              0.1140373      0.63714543     0.64224259   
     13200   322.75941      10341.329      1436.0528     -2306.5341      4              0.1140373      0.64230734     0.6474458    
     13300   296.60216      10128.442      982.42163     -2309.716       6              0.17095847     0.98371175     0.99158145   
     13400   303.86644      9898.3668      1464.0474     -2308.8664      8              0.2278148      1.3421025      1.3528393    
     13500   303.14295      9648.5385      2838.6838     -2309.0662      10             0.28460641     1.7210667      1.7348353    
     13600   300.27945      9505.2693      2545.6266     -2308.0377      14             0.39799589     2.4458108      2.4653773    
     13700   328.89988      9558.7248      989.29609     -2307.4121      14             0.39799589     2.432133       2.4515901    
     13800   325.77525      9644.7147     -67.509022     -2306.7232      18             0.51112778     3.0991484      3.1239416    
     13900   322.61715      9678.3269     -1878.9492     -2306.2922      16             0.45459398     2.7452313      2.7671932    
     14000   298.54616      9601.9357     -965.13717     -2309.4411      12             0.3413334      2.0753039      2.0919063    
     14100   296.07077      9609.465      -1649.9033     -2308.2966      14             0.39799589     2.4192908      2.4386451    
     14200   287.76059      9679.7213      69.892303     -2308.1613      10             0.28460641     1.7155224      1.7292466    
     14300   299.45274      9876.4714     -579.05909     -2307.4621      8              0.2278148      1.3450779      1.3558385    
     14400   303.10762      10030.184      2195.1074     -2307.574       8              0.2278148      1.3244645      1.3350602    
     14500   293.49665      10247.058      563.82806     -2307.3989      10             0.28460641     1.6205411      1.6335054    
     14600   322.05365      10318.447      1919.431      -2305.6205      8              0.2278148      1.2874634      1.2977631    
     14700   312.66985      10329.505      895.08356     -2306.2281      10             0.28460641     1.6076065      1.6204673    
     14800   298.32748      10318.361      1113.6698     -2307.1374      6              0.17095847     0.96560564     0.97333048   
     14900   311.25948      10349.485      303.88153     -2306.8763      4              0.1140373      0.64180116     0.64693557   
     15000   336.21207      10402.31      -479.53752     -2305.2354      6              0.17095847     0.95781291     0.96547541   
     15100   293.37826      10305.047     -1420.9554     -2308.7622      4              0.1140373      0.64456878     0.64972533   
     15200   302.68114      10163.897     -2273.6801     -2307.6097      8              0.2278148      1.3070403      1.3174966    
     15300   308.39891      9895.1908     -3500.3295     -2307.4839      12             0.3413334      2.0137999      2.0299103    
     15400   326.36799      9698.0564     -2567.7472     -2306.9791      10             0.28460641     1.712279       1.7259773    
     15500   330.09374      9590.128      -1747.2783     -2307.0348      8              0.2278148      1.3852394      1.3963213    
     15600   294.92954      9690.3957     -939.60529     -2308.964       4              0.1140373      0.68545308     0.6909367    
     15700   309.36662      9631.9125      202.67644     -2307.4501      4              0.1140373      0.68961502     0.69513194   
     15800   301.82112      9601.1402      1236.906      -2305.9937      4              0.1140373      0.69182528     0.69735989   
     15900   292.3959       9568.7142      757.4927      -2307.133       2              0.057051179    0.34708485     0.34986153   
     16000   303.77028      9563.0319      933.14529     -2308.4075      4              0.1140373      0.69458218     0.70013884   
     16100   298.89903      9691.6238      433.83707     -2309.1248      4              0.1140373      0.68536621     0.69084914   
     16200   319.82904      9908.4262     -338.88371     -2307.8163      6              0.17095847     1.005555       1.0135994    
     16300   289.84334      10085.377      339.19506     -2308.2229      8              0.2278148      1.3172163      1.327754     
     16400   311.66755      10295.132     -527.71016     -2308.7378      6              0.17095847     0.96778428     0.97552655   
     16500   322.78693      10386.123     -723.86651     -2306.7738      6              0.17095847     0.95930572     0.96698017   
     16600   308.6394       10323.257     -339.11863     -2306.0217      10             0.28460641     1.6085794      1.6214481    
     16700   306.70794      10265.332     -92.634944     -2306.3991      12             0.3413334      1.9411876      1.9567171    
     16800   308.19424      10189.074      1020.268      -2306.813       14             0.39799589     2.2816687      2.2999221    
     16900   306.41267      10213.317      2334.4085     -2307.6942      12             0.3413334      1.9510738      1.9666824    
     17000   320.40705      10190.563      3180.3407     -2307.7069      16             0.45459398     2.6072403      2.6280982    
     17100   300.20289      10178.375      657.54051     -2308.0773      16             0.45459398     2.6103622      2.6312451    
     17200   290.04146      9937.329       771.93063     -2308.1131      16             0.45459398     2.6736808      2.6950703    
     17300   309.83106      9770.6115      21.990219     -2309.2437      14             0.39799589     2.3793895      2.3984246    
     17400   301.25015      9522.0479      1305.2399     -2308.1339      16             0.45459398     2.790287       2.8126092    
     17500   320.49691      9567.7859      248.63733     -2307.8039      16             0.45459398     2.7769482      2.7991638    
     17600   311.42108      9689.8634     -739.44353     -2306.8612      12             0.3413334      2.0564722      2.072924     
     17700   316.12492      9720.5152      357.873       -2305.3988      10             0.28460641     1.7083229      1.7219895    
     17800   308.75536      9715.0132     -3278.5785     -2307.528       8              0.2278148      1.3674323      1.3783718    
     17900   303.59385      9622.6562     -3473.1877     -2307.7324      6              0.17095847     1.0354176      1.0437009    
     18000   327.4968       9672.4408     -3891.0726     -2307.2864      6              0.17095847     1.0300882      1.0383289    
     18100   326.41098      9831.9777     -1927.3138     -2306.8352      10             0.28460641     1.6889561      1.7024678    
     18200   314.81501      10098.812     -747.89305     -2307.5558      12             0.3413334      1.973196       1.9889816    
     18300   303.13145      10165.495     -468.19404     -2308.4427      8              0.2278148      1.3068349      1.3172896    
     18400   290.54777      10212.019      1710.6268     -2307.7657      12             0.3413334      1.9513217      1.9669323    
     18500   301.51132      10081.814      621.51343     -2307.3213      12             0.3413334      1.9765228      1.992335     
     18600   275.90421      9992.4982      137.88771     -2309.7888      14             0.39799589     2.3265544      2.3451668    
     18700   300.61296      9972.696       733.05852     -2306.7894      14             0.39799589     2.3311741      2.3498235    
     18800   327.55532      10045.317     -1919.8548     -2306.9129      12             0.3413334      1.9837039      1.9995736    
     18900   336.80543      10123.781     -2721.2662     -2306.154       14             0.39799589     2.2963842      2.3147553    
     19000   298.55895      9910.6433     -4225.0118     -2308.2973      12             0.3413334      2.01066        2.0267453    
     19100   305.64965      9713.8136     -2365.9579     -2308.0329      8              0.2278148      1.3676012      1.378542     
     19200   304.36615      9550.1095     -472.87765     -2308.9033      8              0.2278148      1.3910441      1.4021724    
     19300   291.44082      9662.5907     -699.00757     -2308.9691      8              0.2278148      1.3748511      1.3858499    
     19400   304.12929      9785.4519      1178.6373     -2306.558       8              0.2278148      1.3575891      1.3684498    
     19500   318.46571      9738.5962      1512.3279     -2307.0207      10             0.28460641     1.7051512      1.7187924    
     19600   310.12117      9657.6479      2642.8118     -2307.8729      10             0.28460641     1.7194434      1.7331989    
     19700   306.6086       9657.8734      1353.4067     -2308.4775      8              0.2278148      1.3755226      1.3865268    
     19800   293.99369      9721.3759      1351.9811     -2308.154       6              0.17095847     1.024903       1.0331022    
     19900   333.66009      9911.128       1221.3239     -2306.2196      4              0.1140373      0.67018724     0.67554874   
     20000   321.59137      9970.638      -798.55217     -2307.3059      6              0.17095847     0.99928082     1.0072751    
Loop time of 100.39 on 1 procs for 20000 steps with 363 atoms

Performance: 8.606 ns/day, 2.789 hours/ns, 199.223 timesteps/s, 72.318 katom-step/s
99.0% CPU use with 1 MPI tasks x no OpenMP threads

MPI task timing breakdown:
Section |  min time  |  avg time  |  max time  |%varavg| %total
---------------------------------------------------------------
Pair    | 35.589     | 35.589     | 35.589     |   0.0 | 35.45
Bond    | 0.00088191 | 0.00088191 | 0.00088191 |   0.0 |  0.00
Neigh   | 9.6996     | 9.6996     | 9.6996     |   0.0 |  9.66
Comm    | 0.19151    | 0.19151    | 0.19151    |   0.0 |  0.19
Output  | 1.0759     | 1.0759     | 1.0759     |   0.0 |  1.07
Modify  | 53.816     | 53.816     | 53.816     |   0.0 | 53.61
Other   |            | 0.01757    |            |       |  0.02

Nlocal:            363 ave         363 max         363 min
Histogram: 1 0 0 0 0 0 0 0 0 0
Nghost:           4634 ave        4634 max        4634 min
Histogram: 1 0 0 0 0 0 0 0 0 0
Neighs:              0 ave           0 max           0 min
Histogram: 1 0 0 0 0 0 0 0 0 0

Total # of neighbors = 0
Ave neighs/atom = 0
Ave special neighs/atom = 0
Neighbor list builds = 2623
Dangerous builds = 0

#-------------------- End ----------------------------------------------------------------
Total wall time: 0:01:40
