# LAMMPS data file written by OVITO Basic 3.8.4

308 atoms
4 atom types

0.0 13.0399999619 xlo xhi
0.0 25.8969993591 ylo yhi
0.0 10.4368724823 zlo zhi

Masses

1 58.6934  # Ni
2 14.0067  # N
3 12.0107  # C
4 1.00794  # H

Atoms  # atomic

1 1 8.2523343229 12.3943030128 4.992999712
2 1 1.9187496566 13.5026948184 5.4438727703
3 1 9.8732071397 25.3428042202 0.2254365291
4 1 0.2978768398 0.554195864 10.2114365794
5 2 9.8401478188 13.0987025089 3.988972694
6 2 0.330935939 12.7982968502 6.4478997883
7 2 8.2853936438 0.1502028294 1.2294635471
8 2 1.8856905313 25.7467950018 9.2074089352
9 2 8.6034848698 10.7032300423 4.1851857923
10 2 1.5675992009 15.1937685658 6.2516863768
11 2 9.5220565928 23.6517289449 1.0332504488
12 2 0.6490272432 2.245269456 9.4036223466
13 2 6.7125079095 11.7054435031 6.007464093
14 2 3.4585762656 14.1915550791 4.4294087024
15 2 8.5441189269 24.6539439596 9.6478446304
16 2 1.6269656264 1.2430561764 0.7890278519
17 2 7.9875612965 14.152710849 5.8613478887
18 2 2.1835232567 11.7442885101 4.5755248962
19 2 7.2690655399 1.2042110658 9.7939608347
20 2 2.9020190264 24.6927897176 0.6429116893
21 2 10.0216523086 9.5767103889 9.8419703229
22 2 0.1494316579 16.3202897212 0.5949017315
23 2 5.2349737715 22.5252093174 5.8133377743
24 2 4.9361104036 3.3717892907 4.6235340817
25 2 7.7050639892 14.688778166 1.0019392991
26 2 2.4660203815 11.2082211931 9.434932557
27 2 10.4204782559 1.7402784864 4.2164969421
28 2 12.7906062723 24.1567208727 6.2203755402
29 3 10.2411034198 14.4220395646 3.9534873485
30 3 12.9699811083 11.4749590176 6.4833848207
31 3 7.8844388252 1.4735399886 1.2649488196
32 3 2.2866451543 24.423459474 9.1719239027
33 3 11.3009517803 14.6136767642 3.0058191497
34 3 11.9101319785 11.2833225949 7.4310533326
35 3 6.8245896953 1.6651770847 2.2126170915
36 3 3.3464944797 24.2318222744 8.2242553908
37 3 11.5544555345 13.4327736712 2.4631019163
38 3 11.6566282113 12.4642256879 7.973770566
39 3 6.5710859282 0.4842739916 2.7553343249
40 3 3.5999982469 25.4127253675 7.6815381574
41 3 10.6730500934 12.4719945547 3.0747027377
42 3 12.5380344348 13.4250048044 7.3621697446
43 3 7.4524929341 25.4204942342 2.1437335035
44 3 2.7185916322 0.4765051249 8.2931383526
45 3 10.5925959538 11.1253509247 2.7459411292
46 3 12.6184885744 14.7716484344 7.69093104
47 3 7.5329462913 24.0738506042 2.4724951119
48 3 2.6381380794 1.8231487549 7.9643776835
49 3 9.7069374254 10.2785189938 3.4441680548
50 3 0.4641469974 15.6184803653 6.9927041144
51 3 8.4186048196 23.2270186734 1.7742681863
52 3 1.7524793554 2.6699806857 8.6626046091
53 3 9.553852116 8.9215164087 3.0997510333
54 3 0.6172325416 16.9754829504 7.337121449
55 3 8.5716909114 21.8700160882 2.1186852078
56 3 1.5993939548 4.0269832709 8.3181879007
57 3 8.3554707992 8.5278815264 3.5694104724
58 3 1.8156131933 17.3691178327 6.8674620099
59 3 9.7700706765 21.4763812059 1.6490257687
60 3 0.4010132639 4.4206181532 8.7878467136
61 3 7.7720531422 9.6026070775 4.2686809392
62 3 2.3990312285 16.2943915306 6.16819123
63 3 10.3534891029 22.5511075081 0.949755302
64 3 12.8575954253 3.3458926021 9.4871174934
65 3 6.5825370824 9.509377828 5.0096989898
66 3 3.5885478751 16.3876207542 5.4271734925
67 3 11.5430051627 22.4578782845 0.2087375645
68 3 11.6680785831 3.4391218515 10.228135231
69 3 6.2137290976 10.4313119634 5.9291870067
70 3 3.9573554687 15.4656889495 4.5076857887
71 3 9.0428985342 23.3798100891 9.7261217167
72 3 1.1281866189 2.5171884931 0.7107507656
73 3 5.2482623139 10.2008282288 6.9509571671
74 3 4.9228218612 15.6961703534 3.4859153152
75 3 10.0083637532 23.1493286853 8.7043515563
76 3 0.1627202915 2.7476714507 1.732520926
77 3 5.1676674987 11.3118093977 7.6711014206
78 3 5.0034170675 14.5851899614 2.7657710617
79 3 10.0889585683 24.2603090773 7.9842073028
80 3 0.0821251374 1.6366902818 2.4526650229
81 3 6.0247148719 12.2829467183 7.0532386845
82 3 4.1463693032 13.6140518639 3.3836337978
83 3 9.2319119775 25.2314471748 8.602070039
84 3 0.9391726801 0.6655529612 1.8348024433
85 3 6.2678532996 13.5674372391 7.5302032768
86 3 3.9032308885 12.32956212 2.9066692055
87 3 8.9887735498 0.6189375596 8.1251060624
88 3 1.1823113033 25.2780602457 2.3117670357
89 3 7.1247444405 14.4660640492 6.908165729
90 3 3.0463399301 11.430934533 3.5287067533
91 3 8.1318816265 1.5175643696 8.7471429944
92 3 2.0392021574 24.3794349895 1.6897294879
93 3 7.4126366045 15.7919897171 7.3788690224
94 3 2.7584481574 10.1050104189 3.0580034599
95 3 7.8439902449 2.8434900376 8.276439701
96 3 2.3270941258 23.0535093215 2.1604327813
97 3 8.3637826516 16.3202897212 6.5752296117
98 3 1.8073015234 9.5767096379 3.8616428706
99 3 6.8928434154 3.3717900417 9.0800791118
100 3 3.2782407597 22.5252093174 1.3567933705
101 3 8.7336072739 15.3051271651 5.6567848437
102 3 1.4374769012 10.591872194 4.7800873255
103 3 6.5230195755 2.3566274855 9.9985238798
104 3 3.648065382 23.5403703457 0.4383486025
105 3 9.7169382317 15.4423808732 4.7028547197
106 3 0.4541461912 10.4546184859 5.7340174495
107 3 8.4086040134 2.4938811937 0.5155814798
108 3 1.7624801617 23.4031181654 9.9212912739
109 3 11.3906310288 10.5918729709 1.5884919709
110 3 11.8204534994 15.3051256112 8.8483812837
111 3 6.7349112162 23.5403734274 3.6299444163
112 3 3.43617335 2.3566267086 6.806928066
113 3 12.6594734638 10.0428565586 1.7638314495
114 3 10.5516110644 15.8541435774 8.6730401039
115 3 5.4660687812 22.9913554613 3.4546047916
116 3 4.7050157851 2.9056433022 6.9822680038
117 3 0.3119092359 9.5508137262 0.6679598702
118 3 9.8591747697 16.3461864098 9.7689125391
119 3 4.7736328777 22.4993126288 4.5504759848
120 3 5.3974513104 3.3976859534 5.8863961844
121 3 8.8071081856 10.1050088651 9.7062914816
122 3 1.3639759895 15.7919897171 0.7305810738
123 3 6.4495182726 23.0535093215 5.9490172419
124 3 3.7215662806 2.8434908145 4.4878555536
125 3 10.8891792647 10.6281286147 0.2817955675
126 3 12.3219044811 15.2688699675 10.1550768209
127 3 7.236362198 23.5766290711 4.9366408929
128 3 2.9347217815 2.3203710649 5.5002319025
129 3 5.6653045543 8.3440131935 4.8218349094
130 3 4.5057796338 17.5529861656 5.6150372702
131 3 12.4602376907 21.2925128731 0.3966010291
132 3 10.7508468375 4.604486486 10.0402720794
133 3 5.3901494842 7.4635149822 5.865522095
134 3 4.7809346909 18.4334836 4.5713507004
135 3 9.8664769741 20.4120154387 9.7897866284
136 3 0.3046072923 5.4849846973 0.6470858539
137 3 4.5347277165 6.3862000937 5.6567848437
138 3 5.6363564586 19.5108000423 4.7800873255
139 3 10.7218983636 19.3346989964 9.9985238798
140 3 12.4891853953 6.5622995858 0.4383486025
141 3 3.934379732 6.1816137988 4.4252338803
142 3 6.2367048343 19.7153847834 6.0116382889
143 3 1.1511622512 19.1301142553 0.7932023608
144 3 9.019921624 6.7668858807 9.6436698084
145 3 4.1951915325 7.0595218958 3.3815466947
146 3 5.9758930338 18.8374774633 7.0553257876
147 3 0.8903507507 20.0080215754 1.8368895464
148 3 9.2807330332 5.8889781722 8.5999829359
149 3 5.0493090784 8.1394269245 3.5902842592
150 3 5.1217747054 17.7575724346 6.8465885363
151 3 0.0362330221 21.087926604 1.628151982
152 3 10.1348517528 4.8090731435 8.808720803
153 3 3.6063191783 6.8911912446 2.1082483145
154 3 6.564765388 19.0058081145 8.3286240113
155 3 1.4792230006 19.8396909241 3.1101877701
156 3 8.6918614614 6.0573080465 7.3266847122
157 3 3.1700129459 6.8886019072 0.9915028754
158 3 7.0010716204 19.0083967009 9.44536992
159 3 1.9155291417 19.8371023378 4.2269333658
160 3 8.255555229 6.0598977723 6.2099394296
161 3 5.7375012444 13.9558934208 8.8713418604
162 3 4.4335833219 11.9411059383 1.5655306219
163 3 9.5191248227 1.0073937412 6.783966863
164 3 0.6519591047 24.8896071717 3.6529056193
165 3 6.5968259492 14.036173549 9.9672124274
166 3 3.5742586171 11.8608258101 0.4696594391
167 3 8.6598009002 1.0876738695 5.6880956803
168 3 1.5112836661 24.8093254896 4.748776802
169 3 8.9837696585 14.3987314883 0.7618912111
170 3 1.1873152077 11.4982678708 9.6749812712
171 3 9.141773369 1.4502318087 4.45654503
172 3 1.0293111973 24.4467675504 5.9803274523
173 3 4.0102073318 14.6059078975 10.3638140723
174 3 6.1608772345 11.2910922126 0.07305841
175 3 11.2464187483 1.657408218 5.2914946512
176 3 11.9646650106 24.2395911411 5.145377518
177 3 4.4022032401 14.2433499583 9.0800791118
178 3 5.7688813262 11.6536494008 1.3567933705
179 3 10.8544232181 1.2948502787 6.5752296117
180 3 12.3566613101 24.6021506342 3.8616428706
181 3 10.2746889308 16.7631278146 4.4147974566
182 3 12.9363955974 9.1338707676 6.0220756519
183 3 7.8508540836 3.8146281351 0.8036390976
184 3 2.3202306652 22.082371224 9.6332330716
185 3 10.8424396668 17.5788828283 5.3854259191
186 3 12.3686448614 8.3181165308 5.0514465632
187 3 4.4141867914 4.6303831487 10.2698834306
188 3 5.7568973837 21.2666162104 0.1669896779
189 3 11.3703022035 18.8064005461 5.0305724634
190 3 11.8407815553 7.090598813 5.4063000189
191 3 6.7552392722 5.8579004781 0.1878637777
192 3 3.4158445247 20.0390984925 10.2490093308
193 3 11.3434553994 19.1922665617 3.7050896164
194 3 11.8676291288 6.7047327974 6.7317825528
195 3 6.7820868456 6.2437668821 1.5133466247
196 3 3.3889973295 19.653232477 8.9235255445
197 3 10.7887437245 18.3583806444 2.7344605382
198 3 12.4223400213 7.5386171609 7.7024122572
199 3 7.3367985206 5.4098825187 2.483975703
200 3 2.8342862413 20.4871183942 7.9528964662
201 3 10.2671403356 17.1489923023 3.0997510333
202 3 12.9439441926 8.7480070568 7.337121449
203 3 7.8584019094 4.2004930112 2.1186852078
204 3 2.31268207 21.6965067364 8.3181879007
205 3 10.7371206988 18.6795057931 1.3567933705
206 3 12.47396306 7.217493566 9.0800791118
207 3 7.3884207769 5.7310061136 3.8616428706
208 3 2.782663007 20.1659932455 6.5752296117
209 3 10.5498801478 18.8374774633 0.1878636942
210 3 12.6612043804 7.0595218958 10.2490093308
211 3 7.5756620972 5.8889781722 5.0305724634
212 3 2.5954220779 20.0080215754 5.4063000189
213 4 11.7336212872 15.4138940703 2.8075186351
214 4 11.4774624586 10.4831052888 7.6293538472
215 4 6.3919205667 2.465394598 2.4109174495
216 4 3.7791639996 23.4316049683 8.025955492
217 4 12.1887282916 13.2514939246 1.8160157597
218 4 11.0223554542 12.6455062114 8.6208564095
219 4 5.9368131711 0.3029942451 3.4024204814
220 4 4.2342706128 25.594005114 7.034452314
221 4 10.1276179432 8.4139343408 2.577907284
222 4 0.0434668187 17.4830634645 7.8589651983
223 4 7.9979250842 21.3624355741 2.6405289572
224 4 2.1731596777 4.5345645619 7.7963435251
225 4 7.9900912391 7.6758708949 3.4754785784
226 4 2.1809933272 18.2211284642 6.9613939039
227 4 10.135451006 20.6243705745 1.7429576628
228 4 0.0356330909 5.2726287846 8.6939142037
229 4 4.7879485548 9.4135592411 7.1075100978
230 4 5.3831356203 16.483440118 3.3293623845
231 4 10.4686775253 22.3620589207 8.5477979994
232 4 12.7424062336 3.5349404384 1.8890738567
233 4 4.5915512898 11.4542426094 8.3912456845
234 4 5.5795325071 14.4427575267 2.0456269543
235 4 10.6650755596 24.4027430658 7.2640630389
236 4 12.5460097379 1.4942570702 3.1728094434
237 4 6.9624884252 16.2374179248 8.0677024497
238 4 3.2085961411 9.6595814343 2.3691700326
239 4 8.2941376549 3.2889182453 7.5876062738
240 4 1.8769459464 22.6080811138 2.8492662085
241 4 8.7116897463 17.1800692194 6.6378506691
242 4 1.4593942332 8.7169301397 3.7990218132
243 4 6.5449363207 4.2315699283 9.0174580543
244 4 3.6261478544 21.6654298192 1.419414428
245 4 13.0240625652 9.9936510427 2.6196548574
246 4 10.187021963 15.9033467626 7.8172176249
247 4 5.1014796798 22.9421522761 2.5987813838
248 4 5.0696044953 2.9548478599 7.8380910985
249 4 1.1584637905 9.1856664237 0.8140760745
250 4 9.0126201889 16.7113344892 9.6227963347
251 4 3.927078297 22.1341645494 4.4043604067
252 4 6.2440062693 3.7628340328 6.0325123887
253 4 8.458428497 10.1360857822 8.8400303976
254 4 1.7126560692 15.7609143279 1.5968414585
255 4 6.7981983524 23.0845847108 6.8152776996
256 4 3.3728858227 2.8124138973 3.6215947827
257 4 10.0540999361 10.982917739 0.0939318523
258 4 0.116984552 14.9140808691 10.3429405986
259 4 8.071442309 23.9314181695 5.1245046602
260 4 2.0996420617 1.9655819406 5.3123681248
261 4 5.7894250637 7.5800515311 6.6900349794
262 4 4.3816595026 18.316947828 3.7468375029
263 4 9.4672010033 20.5285512107 8.9652737441
264 4 0.7038826893 5.3684481484 1.4715987382
265 4 4.3685905147 5.798338286 6.3560556235
266 4 5.8024940386 20.0986606847 4.0808168588
267 4 10.8880359435 18.746838354 9.2992537157
268 4 12.3230478153 7.1501610051 1.1376193824
269 4 3.3660977594 5.4590880346 4.3104282099
270 4 6.8049868068 20.4379121014 6.1264442724
271 4 1.7194441325 18.4075869373 0.9080080312
272 4 8.4516400426 7.4894124218 9.5288650669
273 4 5.2209235236 8.719519477 2.8805767321
274 4 4.9501614339 17.1774806331 7.5562954371
275 4 12.9046187214 21.6680184056 2.3378593525
276 4 10.3064650244 4.2289802025 8.0990132863
277 4 7.4991944421 13.8289971139 9.8628444227
278 4 2.671889733 12.0680029962 0.5740280596
279 4 7.7574316249 0.8804974344 5.7924643007
280 4 2.4136523545 25.0165019247 4.6444081816
281 4 9.5812538764 14.4505263675 1.482035475
282 4 0.5898305986 11.4464729916 8.9548370073
283 4 8.5442883686 1.5020266879 3.7364007661
284 4 1.6267958977 24.3949711173 6.7004717162
285 4 5.9783176523 14.8130843326 0.0730577838
286 4 4.1927661446 11.0839150265 10.3638140723
287 4 12.1472242146 1.8645846531 5.1453784573
288 4 11.0638603136 24.032414706 5.291494025
289 4 3.7859407963 14.2174532956 8.3808077057
290 4 6.3851433918 11.6795460635 2.0560641608
291 4 11.4706856619 1.2689535124 7.274500402
292 4 11.7403980839 24.6280457431 3.1623720803
293 4 10.8593820432 17.3069655263 6.2725604767
294 4 12.3517032674 8.5900353866 4.1643120056
295 4 4.3972448062 4.3584642929 9.382748873
296 4 5.7738389777 21.5385335124 1.0541242355
297 4 11.7531503301 19.3631857993 5.6776589435
298 4 11.457934198 6.5338135598 4.7592135388
299 4 3.5034765193 6.4146861197 9.97764978
300 4 6.667608047 19.4823132394 0.4592227023
301 4 11.7064915672 20.0209706966 3.4754785784
302 4 11.5045929609 5.8760286625 6.9613939039
303 4 6.4190506778 7.072471017 1.7429576628
304 4 3.7520334973 18.8245283421 8.6939142037
305 4 9.8882048479 16.59997589 2.4526650229
306 4 0.2828794967 9.2970234691 7.9842073028
307 4 8.2373373971 3.6514762104 2.7657710617
308 4 1.9337469736 22.2455231487 7.6711014206
