# LAMMPS data file written by OVITO Basic 3.8.4

46 atoms
4 atom types

0.0 4.886431 xlo xhi
0.0 8.396838 ylo yhi
0.0 36.0248 zlo zhi

Masses

1 26.981538 # Al
2 15.9994   # O
3 12.01     # C
4 14.003    # N

Atoms  # charge

1 1 0.0 3.3038772513 1.2799216195 1.8669423264
2 1 0.0 4.0257692487 5.4783406195 6.3793423264
3 1 0.0 3.3393918318 7.052462252 0.1445953456
4 1 0.0 3.9902546682 2.854043252 4.6569953456
5 1 0.0 1.5470391682 1.344375748 4.6569953456
6 1 0.0 0.8421910421 0.2599661045 0.0555115448
7 1 0.0 3.3498292484 1.2921474156 7.1720717336
8 1 0.0 0.9066137484 2.9062715844 7.1720717336
9 1 0.0 1.5366017516 7.1046905844 2.6596717336
10 1 0.0 4.0442399579 8.1368718955 4.5679115448
11 1 0.0 3.2854065421 3.9384528955 0.0555115448
12 1 0.0 0.8606617513 2.9184973805 1.8669423264
13 1 0.0 1.5825537487 7.1169163805 6.3793423264
14 1 0.0 3.9798172516 5.4905664156 2.6596717336
15 1 0.0 1.6010244579 4.4583851045 4.5679115448
16 1 0.0 0.8961763318 5.542794748 0.1445953456
17 2 0.0 4.7752549219 4.2967879572 1.27903978
18 2 0.0 1.6766419776 7.0453753207 8.1741404016
19 2 0.0 0.1014716261 6.9186250511 1.2171838008
20 2 0.0 2.3575465917 5.6146213002 5.8437926448
21 2 0.0 4.1198574776 5.5498816793 8.1741404016
22 2 0.0 1.673495116 1.4161015382 7.9430152736
23 2 0.0 4.7849593739 1.4782129489 5.7295838008
24 2 0.0 0.7665735224 2.8469563207 3.6617404016
25 2 0.0 4.8007620917 6.9806356998 5.8437926448
26 2 0.0 2.5446871261 5.6766319489 1.2171838008
27 2 0.0 2.5543915781 0.0983689572 5.79143978
28 2 0.0 3.2097890224 1.3514626793 3.6617404016
29 2 0.0 3.2143480625 4.2096707629 3.721421404
30 2 0.0 2.5288844083 2.7822166998 1.3313926448
31 2 0.0 0.0856689083 1.4162023002 1.3313926448
32 2 0.0 0.1111760781 4.1000500428 5.79143978
33 2 0.0 0.7711325625 8.3855862371 3.721421404
34 2 0.0 0.769720384 5.6145205382 3.4306152736
35 2 0.0 2.3417438739 2.7202060511 5.7295838008
36 2 0.0 3.212935884 6.9807364618 3.4306152736
37 2 0.0 2.3320394219 8.2984690428 1.27903978
38 2 0.0 4.1152984375 0.0112517629 8.233821404
39 2 0.0 1.6720829375 4.1871672371 8.233821404
40 2 0.0 4.116710616 2.7823174618 7.9430152736
41 4 0.0 2.5488425    0          14.0
42 4 0.0 3.4511575    0          14.0
43 4 0.0 0            2.5488425  23.0
44 4 0.0 0            3.4511575  23.0
45 4 0.0 2.5488425    2          31.0
46 4 0.0 3.4511575    2          31.0