# LAMMPS data file written by OVITO Basic 3.8.4

86 atoms
4 atom types

0.0 8.9238815308 xlo xhi
0.0 8.3033332825 ylo yhi
0.0 49.6656255722 zlo zhi

Masses

1 26.981538  # Al
2 15.9994  # O
3 12.01     # C
4 14.003    # N

Atoms  # charge

1 1 0.0 1.846868637 1.263659421 3.271157129
2 1 0.0 1.846868637 1.263659421 8.103969915
3 1 0.0 6.308809403 5.415325939 3.97806205
4 1 0.0 6.308809403 5.415325939 8.810874836
5 1 0.0 0.143995752 6.973637674 3.303826949
6 1 0.0 0.143995752 6.973637674 8.136639735
7 1 0.0 4.605936434 2.821970785 3.94539223
8 1 0.0 4.605936434 2.821970785 8.778205016
9 1 0.0 4.605936434 1.329695732 1.528995631
10 1 0.0 4.605936434 1.329695732 6.361808417
11 1 0.0 0.056871896 0.25176537 0.836898192
12 1 0.0 0.056871896 0.25176537 5.669710834
13 1 0.0 7.087043554 1.279111851 3.316498336
14 1 0.0 7.087043554 1.279111851 8.149310834
15 1 0.0 7.087043554 2.872554791 0.900101737
16 1 0.0 7.087043554 2.872554791 5.732914811
17 1 0.0 2.625102523 7.024221184 1.516314306
18 1 0.0 2.625102523 7.024221184 6.349126948
19 1 0.0 4.518812557 8.051567897 3.995914738
20 1 0.0 4.518812557 8.051567897 8.828727525
21 1 0.0 0.056871896 3.899901256 3.253304441
22 1 0.0 0.056871896 3.899901256 8.086117227
23 1 0.0 1.846868637 2.888007344 0.854750592
24 1 0.0 1.846868637 2.888007344 5.687563522
25 1 0.0 6.308809403 7.039673985 1.561646151
26 1 0.0 6.308809403 7.039673985 6.394458649
27 1 0.0 2.625102523 5.430778739 3.932720843
28 1 0.0 2.625102523 5.430778739 8.765533917
29 1 0.0 4.518812557 4.403432026 1.579517851
30 1 0.0 4.518812557 4.403432026 6.412330925
31 1 0.0 0.143995752 5.48136225 0.887420412
32 1 0.0 0.143995752 5.48136225 5.720233342
33 2 0.0 1.26384474 4.2526352 4.72630734
34 2 0.0 1.26384474 4.2526352 9.559120126
35 2 0.0 8.085304377 6.964611868 1.658138122
36 2 0.0 8.085304377 6.964611868 6.490951196
37 2 0.0 1.207338765 6.844346486 0.097274858
38 2 0.0 1.207338765 6.844346486 4.930087698
39 2 0.0 5.777249288 5.550288383 2.326052076
40 2 0.0 5.777249288 5.550288383 7.158864574
41 2 0.0 8.085304377 5.490388055 4.074544515
42 2 0.0 8.085304377 5.490388055 8.907357589
43 2 0.0 7.856353407 1.398422537 1.658756727
44 2 0.0 7.856353407 1.398422537 6.491569369
45 2 0.0 5.669279531 1.458987044 4.735547668
46 2 0.0 5.669279531 1.458987044 9.568360454
47 2 0.0 3.623363611 2.812945227 0.758268343
48 2 0.0 3.623363611 2.812945227 5.591081345
49 2 0.0 5.777249288 6.904711541 4.742458469
50 2 0.0 5.777249288 6.904711541 9.575270967
51 2 0.0 1.207338765 5.610653437 2.513671511
52 2 0.0 1.207338765 5.610653437 7.346484297
53 2 0.0 5.725785372 0.100968536 2.522911839
54 2 0.0 5.725785372 0.100968536 7.355724625
55 2 0.0 3.623363611 1.338721538 3.174674664
56 2 0.0 3.623363611 1.338721538 8.007487162
57 2 0.0 3.674461843 4.160542982 3.176578728
58 2 0.0 3.674461843 4.160542982 8.009391802
59 2 0.0 1.315308789 2.7530449 2.50676071
60 2 0.0 1.315308789 2.7530449 7.339573784
61 2 0.0 1.315308789 1.398621742 0.090354272
62 2 0.0 1.315308789 1.398621742 4.923166815
63 2 0.0 5.725785372 4.050698082 0.106505527
64 2 0.0 5.725785372 4.050698082 4.939318232
65 2 0.0 3.674461843 8.294456942 0.760172479
66 2 0.0 3.674461843 8.294456942 5.592985409
67 2 0.0 3.394412642 5.550088931 0.757649739
68 2 0.0 3.394412642 5.550088931 5.590462597
69 2 0.0 5.669279531 2.692679598 2.319141275
70 2 0.0 5.669279531 2.692679598 7.151954061
71 2 0.0 3.394412642 6.904910993 3.174056204
72 2 0.0 3.394412642 6.904910993 8.00686899
73 2 0.0 1.26384474 8.202364723 2.309900803
74 2 0.0 1.26384474 8.202364723 7.142713733
75 2 0.0 8.136402342 0.008876263 4.072640451
76 2 0.0 8.136402342 0.008876263 8.905452949
77 2 0.0 8.136402342 4.142790301 1.656233914
78 2 0.0 8.136402342 4.142790301 6.489046556
79 2 0.0 7.856353407 2.753244104 4.075162976
80 2 0.0 7.856353407 2.753244104 8.907975762
81 4 0.0 4.5488425    0          15.0
82 4 0.0 3.4511575    0          15.0
83 4 0.0 0            4.5488425  25.0
84 4 0.0 0            3.4511575  25.0
85 4 0.0 4.5488425    4          35.0
86 4 0.0 3.4511575    4          35.0