# LAMMPS data file written by OVITO Basic 3.8.4

46 atoms
4 atom types

0.0 8.923882 xlo xhi
0.0 8.303333 ylo yhi
0.0 44.832813 zlo zhi

Masses

1 26.981538 # Al
2 15.9994   # O
3 12.01     # C
4 14.003    # N

Atoms  # charge

1 1 0.0 1.846868771 1.2636593393 3.2711619712
2 1 0.0 6.308809771 5.4153258393 3.9780575288
3 1 0.0 0.14399576 6.9736372534 3.3038221215
4 1 0.0 4.60593676 2.8219707534 3.9453973785
5 1 0.0 4.60593676 1.3296957466 1.5289908785
6 1 0.0 0.0568719 0.2517653599 0.8368933944
7 1 0.0 7.0870436724 1.279111842 3.3165034228
8 1 0.0 7.0870436724 2.872554658 0.9000969228
9 1 0.0 2.6251026724 7.024221158 1.5163095772
10 1 0.0 4.5188129 8.0515676401 3.9959196056
11 1 0.0 0.0568719 3.8999011401 3.2532998944
12 1 0.0 1.846868771 2.8880071607 0.8547554712
13 1 0.0 6.308809771 7.0396736607 1.5616510288
14 1 0.0 2.6251026724 5.430778342 3.9327160772
15 1 0.0 4.5188129 4.4034318599 1.5795131056
16 1 0.0 0.14399576 5.4813622466 0.8874156215
17 2 0.0 1.2638447883 4.2526350293 4.7263074671
18 2 0.0 8.0853048085 6.9646115304 1.6581381403
19 2 0.0 1.2073387674 6.8443460552 0.0972700273
20 2 0.0 5.7772498157 5.5502882139 2.3260522282
21 2 0.0 8.0853048085 5.4903879696 4.0745446403
22 2 0.0 7.8563536919 1.3984224339 1.6587567404
23 2 0.0 5.6692797674 1.4589869448 4.7355429727
24 2 0.0 3.6233638085 2.8129450304 0.7582683597
25 2 0.0 5.7772498157 6.9047112861 4.7424587282
26 2 0.0 1.2073387674 5.6106534448 2.5136765273
27 2 0.0 5.7257857883 0.1009685293 2.5229120329
28 2 0.0 3.6233638085 1.3387214696 3.1746748597
29 2 0.0 3.6744619568 4.160542763 3.176578988
30 2 0.0 1.3153088157 2.7530447861 2.5067607718
31 2 0.0 1.3153088157 1.3986217139 0.0903542718
32 2 0.0 5.7257857883 4.0506979707 0.1065055329
33 2 0.0 3.6744619568 8.294456737 0.760172488
34 2 0.0 3.3944126919 5.5500889339 0.7576497596
35 2 0.0 5.6692797674 2.6926795552 2.3191364727
36 2 0.0 3.3944126919 6.9049105661 3.1740562596
37 2 0.0 1.2638447883 8.2023644707 2.3099009671
38 2 0.0 8.1364029568 0.008876263 4.072640512
39 2 0.0 8.1364029568 4.142790237 1.656234012
40 2 0.0 7.8563536919 2.7532440661 4.0751632404
41 4 0.0 4.5488425    0          15.0
42 4 0.0 3.4511575    0          15.0
43 4 0.0 0            4.5488425  25.0
44 4 0.0 0            3.4511575  25.0
45 4 0.0 4.5488425    4          35.0
46 4 0.0 3.4511575    4          35.0
