# LAMMPS data file written by OVITO Basic 3.8.4

44 atoms
4 atom types

0.0 9.0248003006 xlo xhi
0.0 8.3968381882 ylo yhi
0.0 24.8864312172 zlo zhi

Masses

1 26.981538  # Al
2 15.9994  # O
3 12.01     # C
4 14.003    # N

Atoms  # charge

1 1 0.0 1.8669423254 1.2799216482 3.3038772858
2 1 0.0 6.3793424757 5.4783406163 4.02576954
3 1 0.0 0.1445953504 7.052462494 3.3393919265
4 1 0.0 4.6569957444 2.8540433999 3.9902548993
5 1 0.0 4.6569957444 1.3443758201 1.5470392907
6 1 0.0 0.0555115466 0.2599661019 0.8421910747
7 1 0.0 7.1720719725 1.2921475034 3.3498293045
8 1 0.0 7.1720719725 2.9062715907 0.9066137692
9 1 0.0 2.6596718222 7.1046906848 1.536601771
10 1 0.0 4.5679118865 8.1368718848 4.0442399959
11 1 0.0 0.0555115466 3.9384530342 3.2854068299
12 1 0.0 1.8669423254 2.9184973284 0.8606618238
13 1 0.0 6.3793424757 7.116916666 1.5825537848
14 1 0.0 2.6596718222 5.4905665975 3.9798175213
15 1 0.0 4.5679118865 4.4583853975 1.6010245339
16 1 0.0 0.1445953504 5.5427947883 0.8961763863
17 2 0.0 1.2790398587 4.2967880115 4.7752551977
18 2 0.0 8.1741405836 7.0453755458 1.6766420765
19 2 0.0 1.2171838955 6.9186253154 0.1014716258
20 2 0.0 5.8437930741 5.614621191 2.3575467405
21 2 0.0 8.1741405836 5.5498817365 4.1198576851
22 2 0.0 7.9430157187 1.4161016203 1.6734952246
23 2 0.0 5.7295840458 1.4782129988 4.7849594888
24 2 0.0 3.6617404333 2.8469564517 0.7665735321
25 2 0.0 5.8437930741 6.9806360913 4.8007623491
26 2 0.0 1.2171838955 5.6766319669 2.544687337
27 2 0.0 5.791440009 0.0983689594 2.5543916281
28 2 0.0 3.6617404333 1.3514627683 3.2097891407
29 2 0.0 3.7214215821 4.2096706222 3.214348137
30 2 0.0 1.331392653 2.7822167453 2.5288844767
31 2 0.0 1.331392653 1.4162023488 0.0856689121
32 2 0.0 5.791440009 4.1000501767 0.1111760831
33 2 0.0 3.7214215821 8.3855866601 0.7711326017
34 2 0.0 3.4306152976 5.6145205885 0.769720384
35 2 0.0 5.7295840458 2.7202062213 2.3417440268
36 2 0.0 3.4306152976 6.9807366938 3.2129361392
37 2 0.0 1.2790398587 8.2984692708 2.3320395891
38 2 0.0 8.2338217324 0.0112517632 4.1152986888
39 2 0.0 8.2338217324 4.1871673141 1.6720830802
40 2 0.0 7.9430157187 2.7823175997 4.1167106866
41 4 0.0 4.5488425    0          9.0
42 4 0.0 5.4511575    0          9.0
43 4 0.0 0            3.5488425  19.0
44 4 0.0 0            4.4511575  19.0