LAMMPS data file via write_data, version 2 Aug 2023, timestep = 1000, units = metal

3750 atoms
5 atom types

-1.960073828245882 101.96007382824584 xlo xhi
-1.960073828245882 101.96007382824584 ylo yhi
-0.11760442969474916 6.117604429694758 zlo zhi

Masses

1 26.9815
2 28.086
3 24.305
4 63.54
5 55.847

Atoms # atomic

1 1 -1.8269004784760237 -1.2590368532686202 0.19882685384839888 0 0 0
2 1 0.4813426915495991 1.1460453439354574 0.743616139107817 0 0 0
3 1 -0.5393075036197355 -1.332979363393504 2.72427916559429 0 0 0
652 1 -0.9039585881742347 0.8312079711384515 4.534941135729312 0 0 0
653 1 1.1441284705390729 -1.1185490851413906 4.925099329419046 0 0 0
4 1 101.58399889624317 0.742960617275878 1.899292310112751 -1 0 0
5 1 1.868657364084923 -0.9926451140035292 1.6710453542674322 0 0 0
6 1 4.224446117073571 0.6816170117556122 2.170430020777801 0 0 0
7 1 3.6758030737967884 -1.514422601462704 3.7869396965360727 0 0 0
8 1 1.8434549526665474 1.1327713073812404 3.3323292033410707 0 0 0
654 1 3.2869627342608974 0.9033589057092208 5.953319431547934 0 0 0
9 1 4.814438970545873 -1.5006379673978125 0.5790417536302755 0 0 0
10 1 6.484546523414579 1.0394462092178118 0.2209581783413191 0 0 0
11 1 6.842241371017044 -1.278832754754681 2.121586671948287 0 0 0
12 1 6.463888069811993 1.204235930066997 3.6537170940895876 0 0 0
655 1 6.753357885395895 -1.011109672509423 4.884203578455993 0 0 0
656 1 9.176804600675906 0.11164751998832756 3.1354472213962103 0 0 0
14 1 11.321281412684465 -0.7474125666448121 5.344122663673959 0 0 -1
16 1 8.864844150159447 -0.4078700017194745 0.3343779415265969 0 0 0
657 1 9.581939956396285 101.38854963222555 1.903709262845545 0 -1 0
658 1 11.621038164704759 -0.6455817888307473 2.186926269717327 0 0 0
17 1 13.716926289445281 -1.1604685596917033 0.552827289042691 0 0 0
660 1 13.859840126740794 -0.7266378379048815 3.8511192696599608 0 0 0
20 1 13.73371331730136 1.229971232800691 1.9646539148433555 0 0 0
43 1 13.624576033808264 1.382866023409008 5.258663118875901 0 0 -1
18 1 16.159679705415755 0.0353603575124648 5.415596017276647 0 0 -1
19 1 16.3154104738406 101.82610308446164 0.5924239157060065 0 -1 0
21 1 18.716616765172137 -1.0283143945733704 4.709243087836273 0 0 -1
24 1 16.691707568534696 -0.5241821537549625 2.656890008851335 0 0 0
47 1 18.70555610653313 0.2022182697297099 0.8994589736164864 0 0 0
22 1 21.148957905593544 -1.6816078168095498 0.3287318480011132 0 0 0
25 1 22.979137203091472 -1.0762561741248344 4.732716364562613 0 0 -1
26 1 22.739232001046776 0.14459541141512933 1.2961551915553469 0 0 0
662 1 20.816976292704283 -0.5054716917603215 3.081590640443968 0 0 0
663 1 23.024841711796878 101.62432459482335 2.332753955511557 0 -1 0
48 1 20.655602448337174 1.0274160723150398 5.344749684210555 0 0 -1
977 1 25.335405150816484 101.8051153155794 0.7963869350988271 0 -1 0
1576 1 25.116735288729235 -0.2697843420990351 3.209936694471796 0 0 0
976 1 24.987110712044032 0.8036863380070911 5.728829998684548 0 0 -1
1577 1 27.37677522748673 101.81262517222221 2.4398182843568343 0 -1 0
981 1 27.292721904562967 0.5415800637778259 1.2317897461217289 0 0 0
978 1 27.042294204993983 -0.8966426645979573 4.944291162917887 0 0 -1
980 1 29.31316543057685 -1.3347666116909063 0.18947024469416668 0 0 0
1578 1 29.2851283477124 -0.19195134151597992 2.980922719037748 0 0 0
979 1 29.31701370056871 1.2717080547156967 5.6271245665464455 0 0 -1
982 1 31.532969461133604 -1.1992391760792394 4.8975616689587085 0 0 -1
984 1 33.514886003072085 -1.7485057804828856 0.5559864817037031 0 0 0
985 1 31.641661839817303 0.5733891389882344 1.3870781039501818 0 0 0
1580 1 33.58250697637736 -0.45924619900470076 3.1119702872881514 0 0 0
983 1 33.77964909888504 0.6987957884421507 5.577191743689585 0 0 -1
986 1 35.39353300807927 -1.4303551406057615 4.669090151046076 0 0 -1
987 1 37.766818045124616 0.5608074930499591 5.454185284427051 0 0 -1
988 1 37.95451837745486 -1.8010381296356097 0.431484919743343 0 0 0
989 1 35.825382888146464 0.2432919247191414 1.2633624376850017 0 0 0
1582 1 37.61052920998086 -0.6713863804725957 3.0072184663903894 0 0 0
990 1 39.73184948204989 -1.428407217682765 4.523284184292695 0 0 -1
993 1 39.93026290602747 0.028510482252189773 0.6446351655388269 0 0 0
1595 1 39.7805062423816 1.3108811363446757 3.7040349173531384 0 0 0
991 1 42.05738800354693 1.1542786139543564 5.248418923938773 0 0 -1
1584 1 42.249788239013306 -0.6936583484112055 3.113035932722562 0 0 0
992 1 41.94139471442608 -1.6192641991275 -0.0759352775071544 0 0 0
1585 1 44.16014691960235 -0.06987408848127541 1.1385988871535015 0 0 0
1597 1 44.631378984835834 0.36972355086891273 4.490977567690623 0 0 0
1586 1 46.49522677849319 0.9627721945814547 1.9492925773680834 0 0 0
996 1 47.07828138512671 -1.3170513619354303 0.22175780622132574 0 0 0
995 1 47.367268441274035 0.6357062822056849 4.504313555160434 0 0 -1
998 1 49.212439232407036 -1.3826171996240466 5.022148954172215 0 0 -1
999 1 48.78266711575581 0.9946857688819688 0.5226395008068061 0 0 0
1587 1 48.06597448889467 -1.2635830342708632 2.633635246539222 0 0 0
2526 1 50.13853756451122 0.7675030393122908 3.0396698326594676 0 0 0
1876 1 51.54965758775606 0.9722266609127743 5.830594582015867 0 0 -1
1877 1 50.52872119156165 -1.3266061248286158 1.3883853240412494 0 0 0
1881 1 52.83572427698466 0.8140154440257494 2.1173448753624533 0 0 0
2527 1 51.74277255896639 -0.9666697197552242 3.851455918011264 0 0 0
1878 1 53.56708795945171 -0.8605159539643639 5.95652636075898 0 0 -1
1879 1 55.56492332767102 0.8683050406098571 0.7360748609990292 0 0 0
1880 1 54.4122317556092 -1.1412823615874057 2.8209613816721952 0 0 0
2528 1 54.302940412326826 1.2814102030251688 4.5318106744726485 0 0 0
2529 1 56.296451202424954 -0.8472504053356362 5.199958820115365 0 0 0
1885 1 56.74946538365446 0.8886133760402624 3.1986324213166513 0 0 0
1882 1 59.12756256290834 -0.12118432613161767 1.6749152234140847 0 0 0
1883 1 58.32783349906086 1.6517520850320788 5.313170002904274 0 0 -1
2530 1 60.31197654541836 -0.026255411925465433 4.845532234356876 0 0 0
1910 1 59.30634898721528 2.451691288340794 3.0595516659388955 0 0 0
1889 1 61.87850651388219 0.17640778646344968 2.679363317351359 0 0 0
2531 1 62.37073670509625 101.79908896989913 4.204026380310248 0 -1 0
1887 1 62.80031728748898 0.4683521358357572 0.018403374961349916 0 0 0
1888 1 63.90981072160659 -1.757424129354092 1.9744264157810267 0 0 0
2532 1 64.46581443941508 0.12863604465870582 3.894038661833328 0 0 0
1890 1 65.4870570224063 -1.7116477834678727 5.461860766925762 0 0 -1
1891 1 67.0353015137255 0.32570401376574143 5.149875367160552 0 0 -1
1892 1 68.00572797229682 -1.5622916133483424 0.5521247078798206 0 0 0
1893 1 65.4331437926593 0.6517814480930681 1.4811522483588475 0 0 0
2533 1 66.67308668992786 -1.4660917387837844 2.8808688565952534 0 0 0
2534 1 68.33247261815411 0.5500153853096812 2.7656831162055164 0 0 0
1894 1 69.55190538904154 -1.3706376696938443 4.5366598189143374 0 0 -1
1895 1 71.08207094322864 0.9610153139955449 3.63978621951239 0 0 -1
1896 1 72.13540971422672 -1.1872380569270855 5.829136085658502 0 0 -1
1897 1 69.80255968283912 0.7224216469037699 0.07351221663662558 0 0 0
2535 1 70.38596114584325 -1.3286483181450972 1.8127234282949394 0 0 0
2536 1 72.63482385764382 0.9539620469911196 1.1889348737200207 0 0 0
1900 1 74.42520758491985 -1.1873387694639876 0.7830019245844224 0 0 0
1898 1 74.02999564261837 1.1554903603053428 4.8699780883034265 0 0 -1
2537 1 73.12762849127795 -1.2377968987347177 3.1273104585106273 0 0 0
2538 1 75.07729319963059 1.2763578911570996 2.291069540574943 0 0 0
2850 1 75.57255776986233 -1.2652285553821923 4.0865021092986265 0 1 0
1899 1 76.79497783999446 1.325659096469272 4.54251723638086 0 0 -1
2851 1 78.16329194264782 -1.4042598400556767 5.372480587255559 0 0 -1
3451 1 78.2057474755236 0.9939518912672614 0.8625798432414207 0 0 0
3452 1 79.53578482352478 1.0966545751309558 3.3007241211733773 0 0 0
2853 1 79.70552501641092 -1.257008701660094 1.4816076580901019 0 0 0
2852 1 80.64486428782504 1.0883450275301936 5.633336726613632 0 0 -1
2855 1 82.38594554987444 -0.9444686626651924 0.34450319020458986 0 0 0
2858 1 81.86364577427008 1.0728279962450222 2.1220496195023517 0 0 0
3453 1 81.31104663830283 -0.9751561315359079 3.9513010258191335 0 0 0
3454 1 83.33331015185263 1.1457937519353019 4.722474247409218 0 0 0
2856 1 84.4791449473632 1.3032221712851513 1.035271097123576 0 0 0
2857 1 83.61935568365497 -0.7780198018403421 2.7241627050384127 0 0 0
2859 1 86.44763237616115 -1.1358232665487042 1.5321250976420597 0 0 0
2862 1 86.13645855187958 0.9880912511504998 3.211217139359938 0 0 0
3455 1 85.23349651906948 -0.8799313327277252 5.1548622540360505 0 0 0
3456 1 86.91991915936399 1.2273353709827588 6.000808826884377 0 0 0
2860 1 88.60347829346024 1.2307188625924317 1.9382261590120997 0 0 0
2861 1 87.80508476473035 -1.0395364216978102 3.8075419814737583 0 0 0
2866 1 89.4762591338601 1.0952729785374373 4.701922941749973 0 0 0
3457 1 88.99360804926688 -0.9907406059592561 0.13709843496926938 0 0 1
2863 1 90.38764773711429 -0.8014450797231198 2.9486282650943183 0 0 0
2864 1 91.19548679716257 1.201707426527903 0.8376041409446857 0 0 0
2865 1 93.02030133208545 -0.8677442754592488 1.4865228184717627 0 0 0
3458 1 92.74735119996414 1.144392950148033 3.384776331512744 0 0 0
2870 1 93.95071256546818 1.4792779206666413 5.713072817266877 0 0 -1
2867 1 91.6317838583812 -0.8575943741936605 5.206938644952297 0 0 -1
3459 1 94.33996834930142 -0.8603047875619798 3.9464554499573286 0 0 0
2868 1 96.55002061798065 1.159044598944749 4.2237004901614945 0 0 -1
2869 1 95.48307384769156 -0.9249236073888394 0.1728393390742275 0 0 0
3460 1 95.05613880071981 1.044778072100157 2.1201621226651106 0 0 0
3461 1 97.10554173027751 -0.8563902953125688 2.7381049534639903 0 0 0
2874 1 97.57533578235783 1.2389270433755213 0.9006539394222659 0 0 0
651 1 100.93695158816449 -1.0542788936256917 4.028322325445761 -1 0 0
2871 1 98.23557480595501 -0.9761171125608661 5.501755847512742 0 0 -1
2872 1 100.26968036584233 0.9553514081918015 5.777936587405816 0 0 -1
2873 1 99.52631441473993 -1.230648644007066 1.3781772619164452 0 0 0
3462 1 99.19761066811422 1.1159951104980461 3.409462532715114 0 0 0
27 1 -1.3286243055604228 2.9967515689049495 0.06828768772033691 0 0 0
28 1 0.7522629091204238 5.214738875156648 0.688351296942556 0 0 0
29 1 -0.16166711740153694 3.216798795449904 2.879963130947618 0 0 0
665 1 -0.5133532575431663 5.1526715337339795 4.663542357312852 0 0 0
666 1 1.4300768677677569 2.962677086064418 5.135957358275961 0 0 0
34 1 2.2031327837009167 5.166440510984844 3.4991572146981906 0 0 0
31 1 2.5928863950746415 2.9383141778324493 1.5006266619299293 0 0 0
33 1 4.050859196391428 3.026610339627376 3.909423593593191 0 0 0
667 1 3.3989827818249108 5.069797475419816 5.977612863483343 0 0 0
35 1 5.370127149988088 3.2339015559827047 1.5826533692154567 0 0 0
36 1 8.333512503907821 5.20533593623339 0.633979219506597 0 0 0
37 1 8.06439204356251 2.960889802457083 2.2134507682556044 0 0 0
38 1 7.111220447523483 5.443491084088175 3.366540197833139 0 0 0
668 1 6.666716003980042 3.477304584306017 5.384388953599975 0 0 0
41 1 10.548649065403193 1.5984859903266977 0.8906177618399542 0 0 0
669 1 9.403632140932634 4.447583171092278 4.165791101000066 0 0 0
39 1 8.818631015627803 1.8633725948317856 5.1109707704049825 0 0 -1
40 1 11.705365154489279 3.6611546579788676 5.475053259785713 0 0 -1
42 1 10.956527414110232 4.002899350613292 1.9497193659804832 0 0 0
670 1 11.399859875663047 1.6867388804790258 3.70911698105154 0 0 0
671 1 13.44281215156953 3.5840734144294233 3.3787678488559862 0 0 0
46 1 14.023005128420373 3.568696367926118 0.6724269432000868 0 0 0
685 1 15.911075425467157 4.5980967868173455 2.494723121899627 0 0 0
672 1 15.696081109670729 2.170863527773337 3.7948927578061977 0 0 0
674 1 18.351724332299746 1.6365778887495268 4.037343257022744 0 0 0
44 1 16.48401036002489 4.563513155216099 5.416162099222919 0 0 -1
45 1 16.306872643197472 2.090143845181406 1.1566469815448284 0 0 0
50 1 18.580752195971332 4.223200411547551 3.147848860501371 0 0 0
73 1 18.693559519839773 3.115910889493862 0.02281292642521171 0 0 0
49 1 20.29449145255149 2.1103944593318458 1.947514658074442 0 0 0
51 1 22.91601025794844 3.0156882535225895 0.06819129811493693 0 0 0
52 1 23.045809719374596 4.161243870254395 2.525364634209459 0 0 0
675 1 20.656789786523383 3.691684611357248 4.561501345703753 0 0 0
676 1 22.89688925013033 1.549171413046372 3.927978769322748 0 0 0
75 1 20.436650707334486 4.920629239904945 0.8520594299678832 0 0 0
1001 1 24.970246893658786 2.3920474972398944 2.03870776507903 0 0 0
1588 1 25.060923700585917 3.315563224651754 4.66874536354146 0 0 0
1002 1 27.360024525738048 3.197856636510326 0.33655837579657033 0 0 0
1589 1 27.137268920538922 1.603209150212713 3.568924940717131 0 0 0
1005 1 27.27407559620175 4.495049052808652 2.621459725162078 0 0 0
1004 1 29.40909800374156 2.409852298954525 2.217763250683951 0 0 0
1590 1 29.570293230779868 3.847088130999567 4.745511332630639 0 0 0
1591 1 31.599282989480592 1.6560948335286203 3.9771658638817122 0 0 0
1006 1 31.869848888044977 2.9327977425860636 0.17602552101070396 0 0 0
1008 1 33.795889032474804 1.9462498184982704 1.6940529352763058 0 0 0
1592 1 33.62375022940787 3.7219707521137924 4.335245657396403 0 0 0
1009 1 31.601964244395703 4.315936150938595 2.638876401581869 0 0 0
1593 1 35.70239356865407 1.358397872598902 3.716433970994886 0 0 0
1010 1 35.8964173630425 2.760628651033107 0.11020694665592057 0 0 0
1012 1 38.01236776938204 2.079836421729053 1.581206760811666 0 0 0
1013 1 35.801528754942495 4.207158399261849 2.3999109379076224 0 0 0
1594 1 37.946178245848024 3.5578706286757367 4.060047152893049 0 0 0
1011 1 38.034876297738656 4.582165571112102 0.4461291505966629 0 0 0
1014 1 39.97656445480013 2.774120408118038 5.982931819160014 0 0 -1
1017 1 40.20452664292038 3.9913879175020446 2.2111469756527837 0 0 0
1596 1 43.047890850860135 3.7272347598164144 4.108622372209622 0 0 0
1015 1 42.43709507298963 4.130938207748987 0.6287761545604971 0 0 0
1016 1 41.86904406531268 1.88785860577021 1.8143629636981644 0 0 0
997 1 44.44525623259981 2.7859326617940194 1.5681691812347602 0 0 0
1018 1 44.88999160375217 4.969047579172211 5.595912153444489 0 0 -1
1598 1 45.560018316213515 2.996832007576865 3.935688620111434 0 0 0
1044 1 46.15421307390963 4.881298082407371 1.8177412641765853 0 0 0
1020 1 46.98333240588723 3.1067200461576983 -0.065211111196945 0 0 0
1023 1 48.80465571603052 5.1410077997861015 0.5586752613749623 0 0 0
1599 1 48.25764727892215 2.9063721398180746 2.6455716752540996 0 0 0
1022 1 49.40732487277996 2.9311657168005114 5.096551657966149 0 0 -1
1019 1 47.39681030697283 5.140604921144307 4.295009267448249 0 0 -1
2539 1 50.18205945900751 5.094834922680735 3.379711001893263 0 0 0
1902 1 51.60910475168599 5.04210111633624 5.784412863481581 0 0 -1
1903 1 50.89018119650558 2.8024162090555462 1.3066434005480339 0 0 0
2540 1 51.676153632494 2.9720933391761912 4.009327754548424 0 0 0
1907 1 52.918627900353485 4.848944936276501 2.2283265991844194 0 0 0
1904 1 53.67814073783967 2.867297388571954 0.07325777064512479 0 0 0
1905 1 55.8788892894038 5.37873175924977 0.8728584468387788 0 0 0
1906 1 54.91386147229658 3.03654255273666 2.522834181089476 0 0 0
1911 1 57.420710398307975 5.325910351514377 3.466107787407375 0 0 0
2541 1 54.310004265679886 5.049041489765519 4.6322279708157845 0 0 0
2542 1 56.13504155072351 3.1689123641058625 5.171503986679926 0 0 0
1908 1 57.323426216702686 3.0189578737289073 1.4160788937021789 0 0 0
1909 1 61.59939698848337 4.513676002563082 2.889996765194226 0 0 0
1912 1 60.73908106085996 2.1992679657551673 0.8258625465140691 0 0 0
2543 1 59.39132067099449 4.885808580681662 1.672047861997823 0 0 1
1915 1 59.400245028347705 4.346813930215283 5.178244819696741 0 0 0
2544 1 61.9568294434835 2.5591923570018746 4.640006465410038 0 0 0
1913 1 62.645525276243816 4.710551623603408 0.3463392060649932 0 0 0
1914 1 63.32447334224506 2.265357598479212 2.2975267165877935 0 0 0
2545 1 64.05963736955934 4.575933918388047 4.16617492618837 0 0 0
1916 1 64.77022719768537 2.5365922699143066 5.790136534491621 0 0 -1
1917 1 66.57612173515186 4.477724302882388 5.155559312436845 0 0 -1
1918 1 67.55334011352767 2.5710002698682883 0.9284988038716646 0 0 0
1919 1 65.41359032546559 4.294983939830414 1.577673848093075 0 0 0
2546 1 66.00494399704563 2.300556590144237 3.556344862946958 0 0 0
2547 1 68.01645108660558 4.547167063677624 2.8104951384174828 0 0 0
1920 1 68.72299077636809 2.6411611144521894 4.443733557621173 0 0 -1
1921 1 70.59035034009153 5.034361979766511 3.910191736094249 0 0 -1
1922 1 71.14899368667358 2.94231793233602 5.4087848432005154 0 0 -1
1923 1 69.18187793418632 4.691289931244182 0.12972259561026794 0 0 0
2548 1 70.11650486288522 2.845568288490611 2.0175325237728052 0 0 0
2549 1 71.88189587977381 4.925549176238397 1.2136984497574943 0 0 0
1924 1 72.63759233983406 3.121306617262655 3.06763316715453 0 0 -1
1901 1 73.9278634972518 3.6138381064654244 0.6080521315886893 0 0 0
1926 1 75.19759267117425 3.5575325185782933 4.107125359760156 0 0 -1
2550 1 74.54381298084775 5.507300703271218 2.6714701562460945 0 0 0
1927 1 72.94772499826331 5.65017958870703 5.033220141621934 0 0 -1
2854 1 76.43117081912672 2.9947520702362462 0.48778011656106346 0 0 0
2875 1 78.95808944394031 3.186368796599904 5.277921972489828 0 0 -1
3463 1 77.60191967050162 3.3983952513892497 2.850590319661649 0 0 0
2878 1 78.0649803580194 5.357710973868702 1.1446558364583803 0 0 0
2877 1 80.09421151356186 3.3393271089016725 1.6095844473305552 0 0 0
2879 1 82.67132114677797 3.318211888538145 0.38561863536540586 0 0 0
2882 1 82.19381883275547 5.477751861191839 2.1190663737400675 0 0 0
3465 1 81.51784771613187 3.3386992943746963 3.97740867162669 0 0 0
2876 1 80.82365413397135 5.302224946739149 6.046003029401987 0 0 -1
3464 1 79.65380751992497 5.31874984271659 3.628909219065829 0 0 0
3466 1 83.557614868582 5.662049147141309 4.8639526572125655 0 0 0
2880 1 84.81126404835788 5.470110187839052 1.0575523831901987 0 0 0
2881 1 84.2657148211492 3.4862067436061395 2.8488544238022344 0 0 0
2883 1 86.69998618874766 3.4250729071981993 1.2694244159846884 0 0 0
2886 1 86.11872220183061 5.581840148239996 3.662258739613435 0 0 0
3467 1 85.17736129040436 3.172862693551397 5.367630147125754 0 0 0
3468 1 87.33037498194406 5.599626828855202 6.095987980998018 0 0 0
2884 1 88.6283146676439 5.267263716153682 2.5083570365333028 0 0 0
2885 1 87.95562291214003 3.1760834144403596 3.8768083304085463 0 0 0
2890 1 89.93736547227739 5.101504669032 4.685321560163704 0 0 0
3469 1 89.51582389217066 3.2254667254197935 0.26760539020625307 0 0 1
2887 1 90.56837875588694 3.046182088186155 2.936554166205059 0 0 0
2888 1 91.29099421325452 5.4978414916862235 0.8129056667519768 0 0 0
2889 1 93.05384410583422 3.412221483435233 1.6321712098394272 0 0 0
3470 1 94.23182162262427 5.729596875031688 6.0535390163508485 0 0 0
2891 1 91.93368983853647 3.250939075950904 5.024944777844359 0 0 -1
2894 1 92.7863935026834 5.522871453747693 3.595926442153799 0 0 0
3471 1 94.55777204609439 3.5744985011023065 4.203284555137675 0 0 0
2892 1 96.65968922560286 5.578652795981539 4.585309940453424 0 0 -1
2893 1 95.68155228049297 3.501983327809839 0.3724035192764321 0 0 0
3473 1 97.47613773182401 3.4096787144910774 2.7403866800564045 0 0 0
2917 1 95.20629087643637 5.89836867635291 2.167986572453781 0 0 0
2898 1 97.88029037029236 5.377802216466389 0.8087647535590966 0 0 0
30 1 -1.5257045900623376 5.214975921982252 2.0978683719074582 0 0 0
664 1 101.13257010122304 2.835143342349882 3.8977991325850905 -1 0 0
2895 1 98.58948499588195 3.1823194942188486 5.225852038709962 0 0 -1
2896 1 100.83039016655826 5.053340471536718 6.038582098279342 0 0 -1
2897 1 99.96130845657908 3.081437237770727 1.3021834626626856 0 0 0
3474 1 99.52892187452525 5.422480177502377 3.5048522403069224 0 0 0
53 1 -0.752316561404829 7.431572735529178 0.3744263629509299 0 0 0
55 1 -0.5124464600248557 7.538308577091204 3.0213219546330525 0 0 0
679 1 1.7755430137519284 7.218941408608027 5.234220085879791 0 0 0
60 1 2.173839730208014 7.655086002861397 2.4280373851864105 0 0 0
32 1 4.43281985828259 6.208869482663404 2.3052426279400864 0 0 0
57 1 4.062754375249876 7.999990930574805 0.2013535180451101 0 0 0
58 1 5.661223391811317 8.046107070379696 3.9400651100566835 0 0 0
59 1 5.822030400755465 5.787078282046459 0.057726969181185556 0 0 1
61 1 6.825701404245793 7.804354068507594 1.6323324033614608 0 0 0
681 1 7.856639529805474 7.563690906734548 5.182647655920224 0 0 0
63 1 9.373998382739627 7.009224244353465 2.7234997831391796 0 0 0
682 1 10.138832570650203 8.811686829044389 5.1499513789359925 0 0 0
65 1 10.791333738084269 6.059803584239138 0.07524506728489175 0 0 0
68 1 11.556485386439899 8.617390825203488 2.2307175697531854 0 0 0
683 1 11.819088738220296 6.040598338966388 3.889398755624157 0 0 0
62 1 9.020609702626977 9.398295078600917 1.2790824598461328 0 0 0
66 1 12.848622955703918 8.154838010685518 5.941496958423175 0 0 -1
69 1 14.135428040786543 5.616917661557433 4.944200273853388 0 0 -1
67 1 13.145219223328382 5.933459080055476 1.4121289420178729 0 0 0
684 1 14.012028746287868 8.003767603230862 3.329479185173092 0 0 0
72 1 15.483049223627741 6.8872212218998765 0.5111911829733014 0 0 0
673 1 16.50885715623088 7.022124193844451 3.8718930783715346 0 0 0
71 1 18.27987572984152 6.798271283525329 1.3257643351547896 0 0 0
687 1 18.833144637375387 6.104418500628114 4.911167543206358 0 0 0
70 1 18.68189957317141 8.559015116170086 3.7495493912970645 0 0 -1
689 1 20.62192699100365 6.2289327227849505 3.1228352436681557 0 0 0
74 1 21.052762618865287 7.551951966275997 6.092118936318794 0 0 -1
78 1 22.986856823518455 6.598140976083764 1.257565569420781 0 0 0
77 1 22.70878176299277 5.411731127682944 5.028292285220567 0 0 -1
1600 1 23.0110959194174 8.339005723656163 4.466771623370315 0 0 0
1000 1 25.026167387995983 5.11405594672997 0.43828942261191184 0 0 0
1025 1 24.964290180583696 6.221988504014918 3.7988550019656158 0 0 0
1024 1 25.244060084439106 7.853409685482765 -0.07401137401683958 0 0 0
1601 1 27.453587585923355 5.426889117974747 5.175009901902212 0 0 0
1026 1 27.422807688718436 6.929846128110702 1.270580959245292 0 0 0
1602 1 27.47427981929663 8.072801096760568 4.650264786132549 0 0 0
1003 1 29.401518688351295 4.9953677512206776 0.962814786615757 0 0 0
1028 1 29.773126412668073 6.929293976997025 2.99881529557674 0 0 0
1027 1 29.916318296150063 8.642936630628178 0.5756377843485465 0 0 0
1033 1 31.49217976367177 8.103202615610472 4.923789197696037 0 0 0
1007 1 33.76565568126014 4.875143784334022 0.7428652788339999 0 0 0
1030 1 31.784023765306188 6.873513048928617 1.172271881286516 0 0 0
1032 1 33.820385991967996 6.423856265039207 3.114153394727207 0 0 0
1603 1 31.861326977866376 5.538533309056056 5.068524928627116 0 0 0
1604 1 34.21938341713166 7.763699940382802 5.43041356204268 0 0 0
1031 1 34.625288566214394 8.70015183932759 1.8520234625848901 0 0 0
1605 1 35.86876084947314 5.24167774266162 4.95409065753086 0 0 0
1034 1 35.874215014720534 6.623868617576676 1.0381914757991522 0 0 0
1037 1 36.39703436418206 7.878516802325548 3.566244643897684 0 0 0
1036 1 38.53042300059889 6.02800245139432 2.7322647912797575 0 0 0
1606 1 38.27807978527551 7.241310891571267 5.640968143894375 0 0 0
1607 1 40.37528722818811 5.242104009054221 4.7314898926114255 0 0 0
1038 1 40.61529760275326 6.840384182366105 0.8408283334824722 0 0 0
1041 1 40.29369524552598 7.992311891130569 3.6287938674001667 0 0 0
1035 1 37.91567654091125 8.672836870307975 1.5142457968229484 0 0 0
1040 1 42.77685787885447 6.519118324055082 5.260735574438995 0 0 0
1021 1 42.54997372633008 5.877734076186683 2.5211183971015756 0 0 0
1042 1 44.53585216063976 7.67018740935028 0.7612231882502093 0 0 0
1609 1 45.26153356916834 6.76046321817587 3.5455847725757605 0 0 0
1043 1 47.066713790748324 7.174177063833167 5.9141905522211005 0 0 -1
1046 1 49.743243283734316 7.143626430085986 5.143351418165179 0 0 -1
1611 1 48.21092335672583 7.050198078051951 2.51497007081626 0 0 0
1047 1 48.993535943732645 9.039647060252069 0.6209860276502065 0 0 0
1929 1 50.90915688667474 6.978637625161436 1.4245523355215446 0 0 0
2553 1 52.169492962633896 7.086810415818311 3.960342576741885 0 0 0
1930 1 53.63078662398744 6.857091290703867 0.1857199336424991 0 0 0
1928 1 51.67724169512104 9.269820970070526 5.608240015140379 0 0 -1
1932 1 54.95027320662057 7.451545999951133 2.7316423851180303 0 0 0
2555 1 56.325239583708296 7.489742985072867 4.924891233957512 0 0 0
1934 1 57.57993415311559 7.474240341994559 1.405012026506477 0 0 0
1937 1 57.13437039565748 9.414069555134894 3.1670181001518887 0 0 0
1936 1 59.82088624605635 6.793914405488925 3.46744359629427 0 0 0
1938 1 60.39534984105809 6.984621413230425 0.14332440812622538 0 0 0
2556 1 58.51752087943487 8.836403344565538 5.477186302741291 0 0 0
1941 1 61.66307212831071 8.949901588983428 3.532277023797595 0 0 0
2557 1 62.222689801052624 6.629774608457126 4.524435891776908 0 0 0
1940 1 63.12412354025268 6.725193239806806 2.0165786253231017 0 0 0
1942 1 64.8075317369225 6.537863461819073 5.8626399957672986 0 0 -1
1939 1 62.1120006187211 8.949984765551978 0.38880018697230867 0 0 0
2558 1 64.36146675661925 8.632839137798744 3.9841565514862216 0 0 0
1944 1 67.32129618615052 6.936891623264012 1.108253192426885 0 0 0
2559 1 66.10587343491639 6.264874550600592 3.394213757619447 0 0 0
1946 1 68.51395051309181 7.051249032927409 4.599480109383196 0 0 -1
1943 1 66.47233268663165 8.841259155826577 5.593130786959717 0 0 -1
1945 1 64.64529095803688 8.708940998460195 1.355419525445609 0 0 0
1948 1 70.9494953848025 7.308648495402117 5.806022365846355 0 0 -1
2561 1 69.90450890533485 7.293411146805555 2.242875144790463 0 0 0
1947 1 70.58112439194336 9.418819864437513 3.947283936674273 0 0 -1
1950 1 72.59161393500916 7.166798219526994 3.0253228591956627 0 0 -1
2563 1 73.94370470829415 7.620701351329403 0.9466172488408295 0 0 0
1952 1 75.12134386643777 7.636687675073757 4.434508243381269 0 0 -1
1925 1 75.85649599848911 5.650339989037666 -0.04279783711959928 0 0 0
2551 1 77.08296921646576 6.0235521909623255 3.7607001641621918 0 0 0
2899 1 78.66710853170163 7.299790416791543 5.568396473242835 0 0 -1
3475 1 76.70657803093428 7.682867802957734 1.6029640297103673 0 0 0
2901 1 80.1182855935666 7.357884455806728 1.599830187767685 0 0 0
2903 1 82.92206462542032 7.700675242609936 0.6695704369093954 0 0 0
3477 1 81.43823987643452 7.417192174502452 4.381501999708746 0 0 0
2905 1 83.88977980326558 7.592701509496935 3.0732760332896585 0 0 0
2907 1 86.59758708812323 7.517756735777066 1.7975488818776963 0 0 0
3479 1 85.52821977989377 7.579784471517245 5.371904890505617 0 0 0
2909 1 88.04053517336166 7.575574198102398 4.241207533653308 0 0 0
3481 1 89.23266132355772 7.600791918472899 0.42040289820977716 0 0 1
2911 1 90.6440094836569 7.302455268286954 2.842814124106938 0 0 0
2913 1 91.59631411851882 7.512906138730596 5.134756078403171 0 0 0
2915 1 93.64224445940074 8.427513116038181 1.2814975544345644 0 0 0
3472 1 94.17762909582635 7.7871887102506 3.955327889462702 0 0 0
3483 1 96.04362428365692 7.769149361100538 -0.09521589589544414 0 0 1
2918 1 95.64456742122951 9.606759482436342 2.4630439745772597 0 0 0
3485 1 97.56071424552471 7.465079061480257 2.665048326287715 0 0 0
3484 1 93.79909060315529 10.466265587722631 4.2573784696269215 0 0 0
2922 1 98.19736100819193 9.180444662688348 0.8000426217252904 0 0 0
2919 1 98.67047601110491 7.4507276543408985 5.071252374031497 0 0 -1
56 1 100.01774157149475 9.183858618267047 3.3242748610680546 -1 0 0
677 1 101.28592577909589 7.192830566674317 4.5135233472164025 -1 0 0
2921 1 100.08680880790008 7.283729704118073 1.5224819943436292 0 0 0
678 1 -1.2584878549640457 9.80238347550558 4.511106616951054 0 0 0
54 1 1.4406738372133692 9.49039827355197 0.552751234058065 0 0 0
79 1 -1.4528011377684458 10.102560715522106 1.8435205263488372 0 0 0
81 1 1.077073174969898 10.211239256329334 3.1393992560933737 0 0 0
690 1 -0.832314406000513 12.144936369063645 5.938349405173373 0 0 0
80 1 1.5558167823533235 12.29935684262337 1.1897428069054266 0 0 0
692 1 3.130226338020588 9.5134731026097 4.660206344301988 0 0 0
83 1 3.5730092027376568 9.97708969514126 2.0607622419634115 0 0 0
84 1 3.912290614132491 11.504295774576851 -0.0788651771329425 0 0 0
86 1 3.2608740704133377 12.614373510105725 3.5204826611783013 0 0 0
87 1 5.76668117641902 12.203883960754117 1.5065208522519975 0 0 0
85 1 5.462425178354654 10.982182824842578 3.767724628828365 0 0 0
64 1 7.980929503137313 9.980096476121172 3.724674562650474 0 0 0
680 1 6.325845046269064 9.787625564227692 -0.05787064548421572 0 0 1
694 1 9.107182404603886 11.542956306182939 5.557727619391745 0 0 0
90 1 8.186429856413454 12.68394272651848 3.251301248038336 0 0 0
89 1 10.462988177292779 10.886921570081338 3.046887630976 0 0 0
91 1 11.588836510744619 10.865971021091182 0.4365355983986877 0 0 0
94 1 12.758580007376915 12.273126715544432 2.568690049993085 0 0 0
696 1 12.674520728400358 10.178967659518824 4.202991034080232 0 0 0
93 1 14.114981476159056 10.024081177828801 1.6092535193079454 0 0 0
95 1 15.27884798638108 9.251279657111398 5.30256267908303 0 0 -1
698 1 15.666022992442027 11.251098323593883 3.633450266965494 0 0 0
98 1 14.037389557115201 11.768406177981957 5.908527662145743 0 0 -1
76 1 19.21315820644655 9.296609245577523 0.6783861939483572 0 0 0
686 1 16.6167812542738 9.21480057324188 1.799914086158404 0 0 0
97 1 17.77122349153043 10.58368124178825 5.266964923328244 0 0 -1
700 1 19.021538728299834 11.030882066887678 2.755584642267156 0 0 0
699 1 16.726272491628105 12.18611056762312 1.0275766881714816 0 0 0
688 1 21.032929242338334 8.76367573492615 2.7381146362577566 0 0 0
99 1 20.647320379451447 10.285669105940904 5.014655404994692 0 0 -1
101 1 21.273756206872633 11.492013356645527 1.1689002570296771 0 0 0
103 1 23.002315282168272 9.357586846878572 0.8444532841383822 0 0 0
702 1 23.026486234249433 10.795447329261671 3.400570426430432 0 0 0