LAMMPS data file via write_data, version 2 Aug 2023, timestep = 2000, units = metal

3750 atoms
5 atom types

8.43194093740329 91.56805906259666 xlo xhi
-5.700746593136536 105.70074659313653 ylo yhi
-0.6371130215371852 6.637113021537193 zlo zhi

Masses

1 26.9815
2 28.086
3 24.305
4 63.54
5 55.847

Atoms # atomic

1 1 8.597696610727457 -4.671049453544225 6.500503349306607 0 0 -1
2 1 11.334962873271541 -2.7379726250897916 6.630554618727453 0 0 -1
3 1 10.225582690477452 -4.85357024867231 2.056007475955849 0 0 0
652 1 9.795763929670672 -2.511937591625282 4.151622010073977 0 0 0
653 1 11.184836034636595 -5.16734437625748 4.795459932793383 0 0 0
5 1 12.495725192604844 -5.062035020230424 0.7291115673359474 0 0 0
6 1 13.700305344792625 -2.7304022550346527 0.8386162099958425 0 0 0
7 1 14.880969941900055 -5.175889519025333 2.16852830419014 0 0 0
8 1 12.428245716373729 -3.4795470598836826 2.986434244865957 0 0 0
654 1 13.694771609748276 -2.017893422970164 5.224091158876977 0 0 0
9 1 13.710997136591832 -4.781878253103979 5.327048337795846 0 0 -1
10 1 16.454719465564295 -2.7555306105860944 0.5463891947107256 0 0 0
11 1 17.235909333330365 105.21178678597275 2.5668606434034165 0 -1 0
12 1 15.186822666765813 -2.6255119162639886 3.0693642232923657 0 0 0
655 1 16.35409233089219 -4.492916690297885 5.031614306700092 0 0 0
656 1 18.045811100757213 -3.7510254965872356 2.7619377022052825 0 0 0
16 1 17.960146554291818 -4.966812644633436 0.058220774718119706 0 0 0
14 1 19.537370607751704 -2.612911234668815 5.589404295897365 0 0 -1
658 1 20.031254748680254 -5.026168625249565 1.870301136835737 0 0 0
20 1 20.82155232551844 -2.7777110660357622 3.160226941155902 0 0 0
17 1 21.796116325916152 -2.992665180913695 0.14067025839039105 0 0 0
660 1 21.572271149958322 -5.4940226667905785 4.074907477947882 0 0 0
18 1 23.004693441677386 -2.724143086101854 4.835993627071177 0 0 -1
24 1 23.09766990539272 -4.184592810676459 2.186724591391381 0 0 0
19 1 23.145108433762026 -5.154700870044218 6.152774791368875 0 0 -1
21 1 24.537310551210023 -5.389214118026692 3.808973164289117 0 0 -1
47 1 24.845236209434297 -3.153111316155863 0.14267776717826175 0 0 0
22 1 26.513571734543437 -5.526907467514605 6.540645640304231 0 0 -1
662 1 26.793910464985334 -3.983513605162567 2.472799279634794 0 0 0
48 1 26.467086693764287 -2.828718357239386 5.45068031992391 0 0 -1
674 1 25.17293490359888 -2.020485441505642 2.976594788305872 0 0 0
25 1 28.680185264647932 -4.641099098667684 4.991180346096932 0 0 -1
26 1 28.546178715259924 -3.173124482327514 0.27008065875970877 0 0 0
676 1 28.46788818625891 -1.8324052939916164 3.503172213567527 0 0 0
1576 1 29.498260404235417 -4.0151411446823015 2.4805348614813614 0 0 0
976 1 30.839647281101346 -2.3373996810940185 5.263466683645941 0 0 -1
977 1 30.723691203908025 -5.147435369316662 -0.3286148788581237 0 0 0
981 1 32.48155357141035 -3.1179497730066688 0.2382450316172916 0 0 0
978 1 31.58416673726787 -4.795425375070181 4.348742754262057 0 0 -1
980 1 33.31632463894667 -5.481369190885833 6.4835367178381755 0 0 -1
1578 1 34.06162919501501 -4.042018982726694 2.334786375441426 0 0 0
979 1 33.43294929800734 -2.9512390606631116 5.009468074178981 0 0 -1
982 1 35.696316925169405 -4.879025838256963 4.7553693522022655 0 0 -1
984 1 37.28767954847128 -5.399917084725821 -0.4021071163769173 0 0 0
985 1 35.267984503051075 -3.5992258656070977 -0.05966081234958309 0 0 0
1580 1 36.75608014297622 -4.267880230177954 1.975914893773758 0 0 0
983 1 37.54142453347731 -2.683836797103473 5.275774970673508 0 0 -1
986 1 38.47596504652623 -4.830470721896605 4.1337465772033966 0 0 -1
989 1 39.07079855912086 -3.509373188877106 0.32836647865359647 0 0 0
1593 1 38.60851494029225 -2.205425251708813 2.804235634774336 0 0 0
987 1 40.24302668552798 -3.1692782550937797 5.1327970234720475 0 0 -1
1582 1 40.83593157480917 -3.8446082649985747 2.3402771859262024 0 0 0
990 1 42.22049293526983 -5.069248765060788 4.126884156849313 0 0 -1
993 1 42.045284445918675 -3.7262399616159207 -0.05689017541144292 0 0 0
1595 1 42.25964770664489 -2.0066824732475212 3.5651981489076356 0 0 0
991 1 43.93859270148941 -3.050538080375569 5.572938639563285 0 0 -1
1584 1 43.73936213239892 -3.9500585545733733 2.242895472991849 0 0 0
1585 1 45.40327147384749 -1.0495141877786942 6.367277933239215 0 0 -1
1597 1 45.216841716453594 -2.2354358838981936 3.372562191596788 0 0 0
1573 1 46.24696123055708 -4.880043409968293 3.78537093929739 0 1 -1
1586 1 47.02026600061371 -2.274549906838406 1.2358461675585852 0 0 0
996 1 46.98329562869935 -4.325059252160334 6.289867851811335 0 0 -1
995 1 47.664683967989596 -2.567293099232558 4.3314898374482755 0 0 -1
1587 1 48.44747867178385 -5.052294875986679 1.1370490095249168 0 0 0
998 1 49.39299139551801 -4.8266096094954545 3.8690938921323927 0 0 -1
999 1 49.436572270019624 -3.012837357526546 6.58970683669526 0 0 -1
2526 1 49.551881306877114 -2.4514213072147624 2.3164957009122396 0 0 0
1876 1 51.20693541225307 -2.911857641232117 4.718979604605282 0 0 -1
1877 1 50.77334718516432 -5.283017633665165 -0.4030519282162187 0 0 0
2527 1 51.56006273286003 -4.861755682521348 2.26185333694465 0 0 0
1881 1 51.74087123498491 -2.732231784994104 0.6281386807778451 0 0 0
1878 1 52.5956285445663 -5.19125408111244 4.541177237398019 0 0 -1
1880 1 53.45404599855927 -5.088950205452147 0.07085000880843229 0 0 0
2528 1 53.430748335142866 -2.7194467020970414 3.189464817250487 0 0 0
1879 1 53.87855455037962 -2.5827942816697202 6.081670114946332 0 0 -1
2529 1 54.45960660417418 -5.039598004266422 2.4701425716556695 0 0 0
1885 1 55.51436878053109 -2.720945893511857 1.0789313597459116 0 0 0
1883 1 55.910482235827345 -2.470558821700628 4.379884245734443 0 0 -1
1882 1 55.509103116759725 -5.111792147329101 5.411473977985475 0 0 -1
2530 1 57.28470239414262 -4.648919917393284 3.4351267190260155 0 0 0
1889 1 57.16503297929112 -4.884642685650284 0.4574301095615876 0 0 0
1887 1 58.90289693419568 -4.406151036102099 5.502979108335721 0 0 -1
2532 1 59.700867778500175 -3.917763038512914 2.359356894038045 0 0 0
1893 1 61.369291880036776 -4.017679281620879 0.12423652555553022 0 0 0
1891 1 61.563946720786895 -3.865500951735358 4.591584328811216 0 0 -1
1892 1 63.635912143267674 105.61160449977197 0.25678787718077334 0 -1 0
2533 1 62.27386995868098 105.37275013100373 2.6748172247434914 0 -1 0
2534 1 63.34876012453078 -3.6021211035127862 2.0164778699334462 0 0 0
1894 1 64.15481412072876 105.67239552348362 4.524192949573196 0 -1 -1
1897 1 63.86427165376968 -3.3741667221936367 6.338699773885134 0 0 -1
1895 1 65.75390357121705 -3.1249401160559893 3.744564241122244 0 0 -1
1896 1 66.24838126569146 -4.925230556350573 6.556115617624432 0 0 -1
2535 1 65.59653197241275 -5.128039883145609 1.912415171335045 0 0 0
2536 1 65.94296705773803 -2.7110999962698425 0.9278107006727092 0 0 0
2537 1 67.9271337747755 -4.806067707042556 3.9608439719642905 0 0 0
1900 1 69.41239158362092 -3.217671430884662 2.0584137751019735 0 0 0
2538 1 69.67407125033009 -1.7337438986241085 4.093911953093649 0 0 0
2850 1 69.43347785734866 -4.478382522326021 6.628404877705631 0 1 0
1899 1 70.19234225666284 -1.9503419017421981 -0.38512467381106086 0 0 0
3430 1 71.1897859704407 -4.1447125619588645 4.37616344957973 0 1 0
3451 1 71.66253691937699 -1.6123821685730295 2.4230836377677023 0 0 0
2851 1 71.7484935506656 -4.038690388981146 0.48177789024067375 0 0 0
3452 1 72.41709020536129 -1.984189843106988 5.525268859791549 0 0 0
2853 1 73.73896801190426 -4.125305896345881 3.1917974835365763 0 0 0
2852 1 73.73743166877989 -2.223589331282795 0.5089800419490984 0 0 0
2858 1 74.24804103027898 -1.3894217003805904 2.8620908995014576 0 0 0
3453 1 73.745362681664 -4.284078093649458 5.905989584318769 0 0 0
2855 1 75.55760200445593 -4.161107093690773 1.0026004539912257 0 0 0
3454 1 75.47994323942186 -1.763308847465138 5.701516700419692 0 0 0
2857 1 76.39655174947987 -3.4186830815045557 3.7500265642033344 0 0 0
2856 1 76.72489470135838 -1.7320306269782098 1.3941450422899013 0 0 0
2862 1 78.5037029480184 -1.4500146148713595 4.447393608289207 0 0 0
3455 1 77.7511034511644 -3.5782729130232 6.506621910481487 0 0 0
2859 1 78.88725054691443 -3.575669979107772 2.5921803942200246 0 0 0
3456 1 79.3481300800315 -1.6701012973777036 0.6903672137694778 0 0 1
2860 1 80.96640480946539 -1.5462232893717847 2.9717587825186054 0 0 0
2861 1 80.01493867902869 -3.568818125060404 5.119502614887631 0 0 0
2866 1 82.17975461281068 -1.870269216866404 5.976437914754003 0 0 0
3457 1 80.8839929861644 -4.0372042786702576 0.4920444973963405 0 0 1
2863 1 81.7957581481391 -4.099086617856905 3.1987885885758787 0 0 0
2864 1 83.18095105432494 -1.6469507483619328 1.3538495485461035 0 0 0
2865 1 84.07308452735137 -4.370306167938155 1.2513420816329672 0 0 0
3458 1 84.15548110602066 -2.33967819766115 3.951794981453458 0 0 0
2870 1 85.36383814787456 -2.1861492734163104 6.39190372619538 0 0 -1
2867 1 83.13168712813268 -4.202736693619766 5.626651983427212 0 0 -1
3459 1 85.69719584715975 -4.680015685498685 4.6451266936529585 0 0 0
2868 1 87.23570771381867 -2.5232728983949237 4.310367897931258 0 0 -1
2869 1 86.45249127935784 -4.82001749058994 0.22704882992606013 0 0 0
3460 1 86.2304719475448 -2.5199938240154944 1.7603894437331142 0 0 0
3461 1 87.60164111842795 -4.8730000437358605 3.0374054583531387 0 0 0
2874 1 88.26415812632413 -2.240562202918914 -0.22628244292469202 0 0 0
2871 1 88.90387616078581 -4.372147494536367 5.541115586622746 0 0 -1
4 1 91.4946803648703 -2.904943749910094 1.062190731921666 -1 0 0
651 1 90.67551055781729 -4.551673049307239 3.3598004436521633 -1 0 0
2872 1 90.57591988936755 -2.311354381834406 5.5649748312060545 0 0 -1
2873 1 89.28272284376615 -4.296522146371593 1.0287182233284322 0 0 0
3462 1 89.28934547455148 -2.08386135973604 2.663312153751388 0 0 0
27 1 9.45303125426188 -0.5350558754094328 -0.39574671293365216 0 0 0
29 1 10.44474904007772 -1.0971574667384463 2.0046569527913585 0 0 0
666 1 11.25924422295644 -0.3413183599469196 4.730496221448046 0 0 0
34 1 11.49718273475128 1.6632460294768228 2.7249139410613377 0 0 0
30 1 8.866047279126871 1.1303407008070518 1.6254004380850717 0 0 0
31 1 12.093436711356564 0.019583057629468215 -0.17335955690559035 0 0 0
33 1 13.241805546212047 -0.3784256256812766 2.109358702310195 0 0 0
35 1 14.98707517236815 -0.4432138573339435 -0.12533227033832472 0 0 0
36 1 17.613330829932522 0.1487019181055107 -0.11966439493166225 0 0 0
37 1 17.37202782613427 -0.9655936024616194 2.5641529942523444 0 0 0
668 1 15.152264990133688 0.2201740435588455 4.193149298461671 0 0 0
669 1 17.313674445873545 1.5533191781554665 4.531901230971471 0 0 0
39 1 16.765102822570654 -1.8402656189765558 5.2057121111769185 0 0 -1
38 1 15.885184597038375 1.34072046672076 1.577839227686232 0 0 0
41 1 19.312887759323253 -2.2602555221508163 0.9152415663810316 0 0 0
43 1 21.763650054081555 -0.3262336783733275 5.5160511904661735 0 0 -1
40 1 20.216187961040873 1.4640776248926324 -0.47362727105574454 0 0 0
42 1 18.781369594557873 1.5902501180050237 2.1105708267592913 0 0 0
670 1 19.48233390968404 -0.1875603872259317 4.37668513312544 0 0 0
671 1 21.22240856765952 1.930198411660423 3.9441580328361243 0 0 0
46 1 21.24506229361416 0.14154971332843846 2.087278874443283 0 0 0
672 1 23.66204086761971 0.5617203764868544 3.631275391447868 0 0 0
44 1 22.759417058235087 1.9818169271340027 1.0262873755597859 0 0 0
45 1 23.287995272185476 -1.0137754208249028 1.125349879233752 0 0 0
50 1 25.160279463735865 0.8790735998992307 1.2111064957746098 0 0 0
73 1 24.63174728652267 -0.7443121904391914 6.002754421990998 0 0 -1
49 1 26.702750745277417 -1.3727334603992611 0.8202539610456121 0 0 0
675 1 26.218397918561873 0.22398059919913482 4.167638032444341 0 0 0
75 1 27.094371330597667 1.694545128557503 -0.4232640738429081 0 0 0
51 1 28.64228525207833 -0.6245921682602411 6.196759783286035 0 0 -1
52 1 28.096582466073805 0.6109799861330796 2.011194743771159 0 0 0
1001 1 30.028398038090003 -1.184396864087347 1.11697589727673 0 0 0
1588 1 30.606688661768384 0.12582376396033457 4.022400202345956 0 0 0
1000 1 29.878707688181287 1.6585945478465174 -0.16373727908118874 0 0 0
1589 1 31.8524034936488 -2.315506313857035 2.626353999229724 0 0 0
1002 1 32.2455880490098 -0.3220905642567242 6.381195202727291 0 0 -1
1005 1 32.16416387177804 0.5983955942495811 1.7333615982381478 0 0 0
1004 1 34.09116582877649 -1.2313427821671112 1.2724489833861496 0 0 0
1590 1 33.53776842173488 0.010233195658611471 3.8573510858707505 0 0 0
1003 1 34.12776710933525 1.6059852472536464 -0.4724993375919153 0 0 0
1591 1 35.80708886146692 -2.1358810161274473 3.3363897845600086 0 0 0
1006 1 35.348908716690495 -0.6800550941217525 6.108870689662904 0 0 -1
1008 1 37.334916205877 -1.5255693376743515 0.7321468704223362 0 0 0
1592 1 37.08718358459957 0.1502442202011638 4.068545710993547 0 0 0
1009 1 35.5637292361747 1.0165123362913118 1.8743522957507381 0 0 0
1007 1 37.217597468683024 0.9746636918832738 -0.29012606400919055 0 0 0
1010 1 39.331368180508875 -0.7671370683700713 6.223676367289421 0 0 -1
1013 1 38.68054869324999 0.5183141533448685 1.8597110465676279 0 0 0
1011 1 40.86951043942211 1.4618176505217075 0.12159935407350164 0 0 0
1012 1 40.76424835845864 -1.1763527531616598 1.377285364990669 0 0 0
1594 1 40.57837007798815 -0.11065687700502824 3.89214899157886 0 0 0
1014 1 42.028984193748954 -1.017186300149377 6.1351812070224 0 0 -1
1017 1 42.62278259846088 1.1635978129180744 2.445609713240475 0 0 0
1016 1 43.4213257659579 -1.675696093327507 1.1464080149432638 0 0 0
1596 1 44.00753241308774 0.19575921257756246 4.439863628881541 0 0 0
1015 1 43.60757937778846 1.1525252626220253 -0.11133963863849428 0 0 0
997 1 45.922816249969195 0.1585602488234663 1.509032758048789 0 0 0
1598 1 46.633136313812436 0.07920361733151271 4.0194987369529755 0 0 0
1020 1 47.924119969918515 0.034028304265334874 6.631042361394774 0 0 -1
1599 1 48.394895267931865 0.7694241396468104 2.1026296516748237 0 0 0
1022 1 49.609852683302435 -0.6543653426992782 4.380177879547766 0 0 -1
1902 1 50.84959920116055 1.7769365382232643 5.299991567947647 0 0 -1
1903 1 50.601020988018256 -0.5132184787170866 -0.396310208718225 0 0 0
2540 1 51.108549586180835 -0.2708917431298623 2.2952980786210126 0 0 0
1907 1 51.99262918153296 1.8040227903084896 0.5047911027920324 0 0 0
1904 1 52.63310875255004 -0.5081641544143887 4.888344806589174 0 0 -1
2541 1 52.96927325153475 1.761280204586158 3.1703697507002686 0 0 0
1906 1 53.724069230645995 -0.873950386480022 0.9785985786267344 0 0 0
2542 1 54.94337965236215 -0.16164220898032866 3.60250312917313 0 0 0
1908 1 55.50199083876891 -0.4740260639071634 6.2566712433184755 0 0 -1
1905 1 54.17659584459211 1.964092399113091 5.688557882207654 0 0 -1
1911 1 54.860209026120906 1.4268290655798728 1.0551634842548439 0 0 0
1910 1 56.79857676623696 -0.35040558053895765 1.4784725804052257 0 0 0
1909 1 58.44936561998713 0.9839295904381542 3.272991383229571 0 0 0
1912 1 58.324967914384715 -0.17688550089694388 5.9369490945167325 0 0 -1
2543 1 57.792703723482084 2.1484270851639966 0.7180092169791517 0 0 1
1915 1 56.74640632684425 1.8817589805555528 5.31760334798599 0 0 0
2544 1 58.34441787420798 -1.9939540801048206 3.795025228588903 0 0 0
1913 1 59.86784396215886 1.9460198850039472 6.000408618575552 0 0 -1
1914 1 58.94117946459806 -2.463712893815307 0.4074873083548991 0 0 0
2545 1 61.0536151605108 0.7799123886660864 3.9344843998077788 0 0 0
1916 1 60.750379708639606 -1.2677986619583832 5.907611936190984 0 0 -1
1919 1 59.79117910609768 0.10062505962556756 0.9544485058974623 0 0 0
2546 1 60.64971759815333 -1.5129919022412581 2.725718120611219 0 0 0
1918 1 62.65240657292272 -1.1935671181705771 0.368707017530135 0 0 0
2547 1 62.83276602253089 0.9497587952832429 2.0765510501686837 0 0 0
1920 1 63.107905999560906 -1.3040950399657723 4.176358735803355 0 0 -1
2548 1 64.93651363739158 -0.638424956086455 2.280639032171141 0 0 0
1898 1 67.5637119063933 -2.537245867911904 5.849759923303216 0 0 -1
1922 1 64.93718567626634 -0.8544500612446111 6.131256535830113 0 0 -1
1924 1 67.07867499391607 -0.6104755115370413 3.937334148450524 0 0 -1
1901 1 67.44932550632285 -0.42341038097120887 0.5833131968503238 0 0 0
1926 1 69.23034129844642 0.4652541844256586 6.158878728302856 0 0 -1
2854 1 69.71700727115322 0.262079230672585 1.8939458814991834 0 0 0
3463 1 71.3016925926128 0.49857375926914216 4.425778454780625 0 0 0
2875 1 71.8829526877249 0.6890218745648102 -0.11063085605243239 0 0 0
2877 1 72.97357192549649 1.1591781697566388 2.176108121716282 0 0 0
3465 1 73.98465497266844 0.3564095590629659 5.094586528839008 0 0 0
2879 1 74.7474010085929 0.2126887064817744 0.505776729816489 0 0 0
2881 1 76.31359251794467 0.34278139669015584 3.564142899696623 0 0 0
3467 1 77.75065779479098 -0.08841466068028225 -0.5430786545406899 0 0 1
2883 1 78.93639360071163 0.43933072800478623 2.1784655012347964 0 0 0
2885 1 80.60898224450494 0.2274596068827508 5.428713636910633 0 0 0
3469 1 81.35241613775125 0.47094966955095785 0.7571771394721993 0 0 1
2887 1 82.96526874435594 0.3785210013435272 4.000165183584857 0 0 0
2889 1 85.27721580124148 -0.1252418473263779 2.017498675485523 0 0 0
2891 1 84.12454765745792 0.23634921353255933 -0.6132577802894588 0 0 0
3471 1 85.70831877396418 0.11380235648029835 4.590417409878038 0 0 0
2893 1 87.02940638665382 0.2670210558336832 -0.2021421351046946 0 0 0
3473 1 87.7552854793579 -0.08085115109767926 2.590276653616447 0 0 0
2892 1 87.30133256792396 2.111334193928702 5.2903217814687995 0 0 -1
2917 1 86.22027817545845 2.617306258002065 2.781298670430594 0 0 0
2898 1 88.35482247486593 2.370118361405826 0.9093560609180016 0 0 0
664 1 91.29146523655513 -0.4558235717311385 3.711472807249548 -1 0 0
2895 1 88.79404521098351 -0.0681841204763689 5.2302280113372355 0 0 -1
2896 1 90.71964006844567 1.5028127355178365 6.2765208155448615 0 0 -1
2897 1 89.88579701988957 -0.36426393659402656 0.922747807935181 0 0 0
3474 1 89.94657757507252 1.9863706746501526 3.4583544424956263 0 0 0
665 1 9.794036859964033 2.0597633017377106 4.664410308934375 0 0 0
28 1 11.181526195797453 2.7733660614302575 0.0682392231747736 0 0 0
53 1 9.62228363486819 4.769188651439876 -0.6129583709918722 0 0 0
55 1 9.992647370654542 4.2032652887490105 2.129246474995575 0 0 0
679 1 11.427104585780654 4.303259330928487 4.706772094129056 0 0 0
60 1 12.261955138690542 5.079180172657027 0.7724883584591453 0 0 0
667 1 12.858127979780923 1.9412088765579005 5.283414449895082 0 0 0
32 1 13.507417534956353 2.493957950905319 1.0666904641261066 0 0 0
57 1 13.76502177232939 4.339170826055225 5.793184398512839 0 0 -1
58 1 14.972559484855672 3.0482955234740636 3.491846607835623 0 0 0
59 1 15.390962262189738 2.3886418656128523 6.456607163376219 0 0 0
61 1 15.538822900241886 4.435249424068218 1.000060947468408 0 0 0
681 1 16.367592726110963 4.742768456803793 5.1263842051216795 0 0 0
63 1 17.71057809647618 3.860961239418396 2.860853158335748 0 0 0
65 1 18.09918801086606 3.315228842480783 0.039306219219250704 0 0 0
68 1 19.509786757310703 6.181544202997715 2.19101972466407 0 0 0
683 1 19.340974961729643 3.512936577029377 4.902604460795423 0 0 0
66 1 20.332481071078394 5.501068662985611 -0.4606945929632553 0 0 0
67 1 20.682796306122377 3.5146898316802133 1.4644273204307785 0 0 0
685 1 23.668968247089648 3.390947192927282 3.640591873732139 0 0 0
69 1 21.997931047428477 3.4761888743905196 6.284845710239754 0 0 -1
684 1 21.275826566486323 4.999988831978278 3.7493449475365073 0 0 0
72 1 23.254389924841654 4.836698481054809 0.8807418099122002 0 0 0
673 1 24.717351756587856 4.567072147280209 5.889551262662337 0 0 0
71 1 25.772353053488192 3.930438946669108 1.2788406745975984 0 0 0
687 1 24.339770361718404 1.806629531835994 5.837815155227201 0 0 0
689 1 26.360973737961476 3.3127499506387394 4.151373081320198 0 0 0
74 1 27.2278589426655 4.56914849439274 6.207572360489678 0 0 -1
78 1 28.338004010577553 3.4541760894807787 1.2367898478903336 0 0 0
77 1 28.696878559643952 1.9685957779138823 4.542223469025007 0 0 -1
1600 1 29.01382447689405 4.761252468731092 3.3465442220070956 0 0 0
1025 1 30.56275074067113 2.5877787833983703 2.6642428239953904 0 0 0
1024 1 30.004635973515057 4.200809605874966 6.174420003863002 0 0 -1
1601 1 31.954258500534134 2.4615493943198565 5.303182464632016 0 0 0
1026 1 32.305900319039026 3.429115810457171 0.4483299512323522 0 0 0
1602 1 31.686930424456868 4.8467707508922775 3.7405802354408677 0 0 0
1028 1 33.49982279612429 2.5833967881610125 3.129368984021781 0 0 0
1027 1 33.86046875545448 4.451768847808756 5.580754101973138 0 0 -1
1033 1 35.7658514120093 4.881202421676161 3.484198452704226 0 0 0
1030 1 35.17615980438183 3.6593702717845566 0.963283369416333 0 0 0
1032 1 37.36022472105394 2.647913007872143 2.756109517513839 0 0 0
1603 1 35.90916842813973 2.507665961561063 5.0214955774300805 0 0 0
1604 1 36.48247933783487 5.080665728575658 6.107303932423788 0 0 0
1605 1 39.00634701900573 2.151562248167613 4.9865241092467105 0 0 0
1034 1 38.833463949966486 3.106193738196154 0.2600610726997937 0 0 0
1037 1 38.71082749136795 4.868374018590451 4.057844686117889 0 0 0
1606 1 40.642682953758374 4.4084029691765245 6.079175925269153 0 0 0
1036 1 40.2245152341753 2.7570119326311797 2.656977323133377 0 0 0
1607 1 41.883368101274826 2.0497297999624227 4.804049677980311 0 0 0
1038 1 42.508330768001215 3.71816825741473 1.0536075110639607 0 0 0
1041 1 42.11562331858811 4.8258862571332415 3.7180562157674735 0 0 0
1021 1 44.34266395053901 3.27455274844605 3.263055532463091 0 0 0
1018 1 45.97065817022972 2.1311176732464006 6.017440156221548 0 0 -1
1040 1 44.03906996815868 4.3446676592765385 5.9334102222002905 0 0 0
1042 1 44.65984286210468 5.364200798929927 1.2857166929136854 0 0 0
1609 1 46.65193725178346 4.6453897663435075 4.106727522396957 0 0 0
1044 1 46.64662427668877 2.861826604182351 1.6198833418394147 0 0 0
1019 1 48.287099680483166 2.367896377847803 4.164310748473518 0 0 -1
1023 1 48.745371469873504 2.6117786530804885 -0.08508816454070367 0 0 0
1043 1 46.841870269007806 4.750223612869011 -0.4194836386321861 0 0 0
1046 1 49.3275175508275 4.568149284492694 5.263146867362645 0 0 -1
1611 1 48.66937330152697 4.611885024495624 2.183136173390114 0 0 0
2539 1 50.536935377880596 2.56880827045536 2.652776304828739 0 0 0
1929 1 51.18145660121859 4.379560242348571 0.3762210508285415 0 0 0
2553 1 51.424261292654684 5.025914917770793 3.3215582622666147 0 0 0
1930 1 52.53947707848207 3.908738336947348 5.398013899341873 0 0 -1
1932 1 53.59032153244005 4.246842591173383 1.5424297614835707 0 0 0
2555 1 55.03825675433542 4.026539209370268 4.166504078783017 0 0 0
1934 1 55.8458755500545 3.8074689037599185 -0.14137264321649456 0 0 0
1936 1 57.4087232036563 3.9573281261320865 2.5783416797314773 0 0 0
1938 1 58.313906290050504 4.075535898226214 5.884661697926038 0 0 -1
1940 1 59.77045230062169 3.950004961674969 0.9969566268047916 0 0 0
2557 1 59.693710253120685 4.591905540734455 3.782854860339951 0 0 0
1942 1 61.455185520877905 4.09095295069867 6.031237340819672 0 0 -1
2559 1 62.32538992909753 3.795103669607542 3.4221328729234277 0 0 0
1917 1 62.47522459607375 1.231654798430454 6.401609100151347 0 0 -1
1923 1 64.943317290482 1.2831702646673593 0.5939700116590048 0 0 0
1921 1 64.27537816858002 1.6165214990833654 4.20457611807819 0 0 -1
1944 1 63.003075593009214 3.5403089118695537 0.8614870490555926 0 0 0
1946 1 64.16464878796242 3.9807583138916662 5.3794737918969275 0 0 -1
2561 1 64.81191540754276 4.879665407267634 3.042321249001868 0 0 0
2549 1 66.44367646660844 1.98264228645193 2.9834597501900126 0 0 0
1927 1 66.57255577257419 1.4673833527203097 5.709741881365737 0 0 -1
1948 1 65.84380323620147 3.6934680887670783 0.5317784138993442 0 0 0
1950 1 67.17365985123192 4.0545584831206725 5.148081750296681 0 0 -1
2563 1 67.67486031756293 4.500059512243661 2.473240486361731 0 0 0
2550 1 68.91611335228335 1.8639156863656954 3.908760628831344 0 0 0
1925 1 68.25060331099205 2.340752066633364 0.9128956618849311 0 0 0
3475 1 70.34306657895385 5.161583474382194 3.9233622307115135 0 0 0
2878 1 70.89979899757114 2.769092587466613 2.240047619846726 0 0 0
2551 1 70.22041540998933 3.208392386990605 6.508617741595568 0 0 0
3464 1 72.15228437487832 3.129501802414131 4.589880124374519 0 0 0
2899 1 71.12127766083458 5.445413464544638 1.2344895419798525 0 0 0
2901 1 73.13923964532054 4.999621942871283 3.0361265654254974 0 0 0
2882 1 74.83922141554154 2.6659275592323723 3.3613924241339634 0 0 0
2876 1 72.77375444068599 3.672041249967476 0.1276651554430589 0 0 0
3477 1 74.72615511882756 4.796231896905347 5.253086297773425 0 0 0
3466 1 76.32348172773547 2.266988678357224 5.629952992143803 0 0 0
2903 1 75.31255370950873 4.643762970940509 1.1250769964729161 0 0 0
2905 1 76.77074205403218 4.443521676391759 3.5508155780200688 0 0 0
2880 1 76.84218445603321 2.2559838475882152 1.4138967647123226 0 0 0
2886 1 78.60338180807898 2.135011743534922 4.257027165074774 0 0 0
3479 1 77.38704310422747 4.602393473218504 -0.3289604768474884 0 0 1
2890 1 82.18526518305683 2.59672349792398 6.097296470368255 0 0 0
3468 1 79.33732233943869 2.177484202798892 -0.21351472675888095 0 0 1
2907 1 79.07489710156409 3.9616056314774664 2.256039296595585 0 0 0
2884 1 81.14081398676393 2.1907646871933677 3.346062015660536 0 0 0
2909 1 80.52127045800336 4.414882934405844 4.903169147814335 0 0 0
3481 1 81.41286741057476 3.9454249788101787 0.9618574939047011 0 0 1
2911 1 82.69304011711506 4.5262332816610105 3.551658227012218 0 0 0
2888 1 83.33061865634429 2.0585267791991892 1.5893042243972388 0 0 0
3470 1 85.57970384303536 2.529844232228399 0.1619767967765714 0 0 1
2894 1 84.63236403566594 2.7972448590670975 4.846592830242507 0 0 0
2913 1 83.88206542106542 4.6764781027847295 6.572498813163753 0 0 0
2915 1 84.91995084971845 4.670165798356615 2.0684742051557277 0 0 0
3472 1 86.44581708128749 5.009555512648586 4.421983379096062 0 0 0
3483 1 86.83072606603591 4.86494068764951 0.08123766525227716 0 0 1
3485 1 88.68968836631015 4.561056936606207 2.4783476774382778 0 0 0
2919 1 89.13857077822885 3.88447097973515 5.349877362162593 0 0 -1
677 1 91.410603287924 4.57481193272298 4.107364014239481 -1 0 0
2921 1 90.7860995972008 3.5408072277650326 0.790764250865059 0 0 0
678 1 10.077520837239746 6.5056264507450905 4.124824764105586 0 0 0
54 1 12.073065712623295 6.837463150922298 6.0979889172264325 0 0 -1
79 1 10.283332826140676 7.426467520624609 0.7818408768108107 0 0 0
81 1 12.027741567535763 8.363801796624566 3.709427265663264 0 0 0
690 1 10.200405371485964 8.971718549090065 5.62636193294758 0 0 0
692 1 13.455518174291287 5.783398520012405 3.4519924773357613 0 0 0
83 1 13.061376710691942 8.036997360147847 1.2580728202145997 0 0 0
84 1 13.377586710010497 9.080385441450934 5.883982540646224 0 0 -1
87 1 15.705802235582137 9.104043145034261 0.5266074782503758 0 0 0
85 1 14.733622408586811 8.5907295066776 3.3023334105246303 0 0 0
680 1 15.027700429227302 6.580049955842814 -0.585473653003224 0 0 1
64 1 16.232182957178996 6.283975408892083 2.9230387101973774 0 0 0
62 1 17.58941848913006 6.2032705246730515 0.26936173742234526 0 0 0
694 1 16.52097550082432 8.602678403454021 5.275677661764323 0 0 0
89 1 17.775219643752095 8.330076459439086 2.730502435558444 0 0 0
682 1 18.335561572685073 6.395265364699172 4.836619823538706 0 0 0
91 1 18.315278285233802 8.993710167003613 0.026248661637951032 0 0 0
696 1 20.68280356970946 7.665867841614558 3.8376902018508203 0 0 0
98 1 21.364691107955508 8.813757470245974 6.363340997522249 0 0 -1
93 1 21.854310893613857 7.30840482737867 1.2916964723775437 0 0 0
95 1 22.56603395146299 6.5027777070612185 6.006985883850032 0 0 -1
698 1 22.28375054511691 9.661316067395914 3.8622845351054216 0 0 0
686 1 23.936636266731142 6.331397911397925 3.3377859103678285 0 0 0
699 1 23.282587225028916 9.792101634707686 1.1502247135280095 0 0 0
70 1 26.567160428892688 5.853303809069379 3.3121372769892603 0 0 -1
688 1 27.792298307782186 6.524707028264553 0.9633094111417295 0 0 0
76 1 25.038269586533914 7.18260867493216 1.2193454362994047 0 0 0
97 1 24.27551895723211 8.95914071089506 5.7640507083082735 0 0 -1
700 1 25.417830017347317 8.867952629142312 3.3502042354825776 0 0 0
99 1 26.40098257220978 7.215172182824466 5.82949767897883 0 0 -1
1049 1 30.485967778679534 5.774775342946251 1.436118294008605 0 0 0
103 1 30.25669009376782 8.277256725581077 0.7445127610981066 0 0 0
702 1 28.13041155028643 7.942582260374699 3.1166300232264725 0 0 0
1613 1 29.0673223368328 6.73526429229034 5.636510131432409 0 0 0
1612 1 31.084004816737103 8.36914282805503 3.2740179622197774 0 0 0
1050 1 32.59945803121745 8.96600637074833 5.682680404187643 0 0 -1
1029 1 31.917979496580845 6.418974697507707 6.632256670694167 0 0 -1
1052 1 33.639792361616514 6.913549970881576 3.779865013507712 0 0 0
1051 1 33.24441825762133 8.477787973376017 1.0708607333452844 0 0 0
1031 1 37.35526047081613 5.269010222496732 1.3487053065258947 0 0 0
1054 1 33.703772561206605 5.7082983012701405 1.3322709590041593 0 0 0
1615 1 34.678944063505526 7.220347882895188 6.431401904432079 0 0 0
1055 1 35.64670155425205 7.403669419847125 2.0367046331785215 0 0 0
1056 1 36.379181258730895 7.520215277115012 4.525633299226165 0 0 0
1058 1 38.33576441592328 7.425697366984325 2.428422565683548 0 0 0
1617 1 37.42419077557251 7.904946965313314 -0.07935463470659487 0 0 1
1061 1 38.31930340049033 9.274456437757712 4.935258641547932 0 0 0
1060 1 40.280245081834046 7.450734534501613 4.669690545928805 0 0 0
1059 1 40.240718264044745 9.336308422963663 2.5958540596544535 0 0 0
1035 1 40.174409572611005 5.176423089040691 1.7903779540690965 0 0 0
1062 1 40.200570159172415 7.522197863801134 0.04290365823000064 0 0 0
1065 1 42.027935646878994 7.311244817396558 2.5068595740548423 0 0 0
1039 1 42.35885504541311 6.260018651939292 -0.30779151941863814 0 0 0
1064 1 44.50369380205249 6.319515749202067 3.6884309963711472 0 0 0
1619 1 42.6948085712411 8.231781479416597 5.333479897647376 0 0 0
1066 1 44.292067077341244 8.264835004041199 1.1024144470447985 0 0 0
1608 1 44.94251339587409 6.753607384990383 6.336866986332199 0 0 0