# LAMMPS data file written by OVITO Basic 3.8.4

16 atoms
4 atom types

0.0 5.066477 xlo xhi
0.0 5.083702 ylo yhi
0.0 27.041767 zlo zhi

Masses

1 28.0855  # Si
2 15.9994  # O
3 12.01    # C
4 14.003   # N

Atoms  # charge

1 1 0.0 5.0642730825 0.2305713042 4.3998579822
2 1 0.0 2.5310345825 2.3112796958 0.8789744822
3 1 0.0 2.5310345825 4.8531306958 2.6419090178
4 1 0.0 5.0642730825 2.7724223042 6.1627925178
5 2 0.0 2.2672991223 3.3352135341 2.1180578871
6 2 0.0 4.8005376223 1.7484884659 4.9237091129
7 2 0.0 2.2672991223 0.7933625341 1.4028256129
8 2 0.0 1.53481321 2.622081985 6.6752430276
9 2 0.0 4.06805171 5.003471015 3.1543595277
10 2 0.0 4.8005376223 4.2903394659 5.6389413871
11 2 0.0 1.53481321 0.080230985 3.8874074724
12 2 0.0 4.06805171 2.461620015 0.3665239724
13 4 0.0 1.5488425    0          12.0
14 4 0.0 2.4511575    0          12.0
15 4 0.0 0            1.5488425  22.0
16 4 0.0 0            2.4511575  22.0