# LAMMPS data file written by OVITO Basic 3.8.4

30 atoms
4 atom types

0.0 5.0664768219 xlo xhi
0.0 5.0837020874 ylo yhi
0.0 45.0835342407 zlo zhi

Masses

1 28.0855  # Si
2 15.9994  # O
3 12.01    # C
4 14.003   # N

Atoms  # charge

1 1 0.0 5.0642729298 0.2305713082 4.3998578744
2 1 0.0 5.0642729298 0.2305713082 11.4416249947
3 1 0.0 2.5310345189 2.3112797762 0.8789744691
4 1 0.0 2.5310345189 2.3112797762 7.9207414345
5 1 0.0 2.5310345189 4.8531306674 2.6419090347
6 1 0.0 2.5310345189 4.8531306674 9.6836763663
7 1 0.0 5.0642729298 2.7724224637 6.1627928062
8 1 0.0 5.0642729298 2.7724224637 13.2045599265
9 2 0.0 2.2672990628 3.3352134898 2.1180579655
10 2 0.0 2.2672990628 3.3352134898 9.1598254943
11 2 0.0 4.8005374738 1.7484884451 4.9237091548
12 2 0.0 4.8005374738 1.7484884451 11.9654758667
13 2 0.0 2.2672990628 0.7933625223 1.4028255946
14 2 0.0 2.2672990628 0.7933625223 8.4445923066
15 2 0.0 1.5348131763 2.622082025 6.675243184
16 2 0.0 1.5348131763 2.622082025 13.7170103043
17 2 0.0 4.0680515873 5.0034711061 3.1543596238
18 2 0.0 4.0680515873 5.0034711061 10.1961267442
19 2 0.0 4.8005374738 4.2903396413 5.6389415257
20 2 0.0 4.8005374738 4.2903396413 12.6807090545
21 2 0.0 1.5348131763 0.0802309863 3.8874074965
22 2 0.0 1.5348131763 0.0802309863 10.9291746169
23 2 0.0 4.0680515873 2.4616200624 0.3665239645
24 2 0.0 4.0680515873 2.4616200624 7.4082910567
25 4 0.0 1.5488425    0          19.0
26 4 0.0 2.4511575    0          19.0
27 4 0.0 0            1.5488425  29.0
28 4 0.0 0            2.4511575  29.0
29 4 0.0 1.5488425    2.5        39.0
30 4 0.0 2.4511575    2.5        39.0